  50  50   0   0
  0.2517325E+02  0.1079700E-08  0.1079700E-08  0.1079700E-08  0.5000000E-14
 423.000000000000000
  CAR 
 Hg                                      
      0.00000000    -15.00000000  301     -3.61807126      1.00000000
    -15.000  0.0000E+00  0.0000E+00
    -14.950  0.0000E+00  0.0000E+00
    -14.900  0.0000E+00  0.0000E+00
    -14.850  0.0000E+00  0.0000E+00
    -14.800 -0.3750E-27 -0.1875E-28
    -14.750 -0.1025E-23 -0.5129E-25
    -14.700 -0.1694E-20 -0.8476E-22
    -14.650 -0.1689E-17 -0.8454E-19
    -14.600 -0.1016E-14 -0.5086E-16
    -14.550 -0.3567E-12 -0.1788E-13
    -14.500 -0.7723E-10 -0.3879E-11
    -14.450 -0.1001E-07 -0.5046E-09
    -14.400 -0.7748E-06 -0.3925E-07
    -14.350 -0.3555E-04 -0.1817E-05
    -14.300 -0.9571E-03 -0.4967E-04
    -14.250 -0.1485E-01 -0.7922E-03
    -14.200 -0.1278E+00 -0.7183E-02
    -14.150 -0.5520E+00 -0.3478E-01
    -14.100 -0.7226E+00 -0.7091E-01
    -14.050  0.2662E+01  0.6219E-01
    -14.000  0.1129E+02  0.6267E+00
    -13.950  0.1634E+02  0.1444E+01
    -13.900  0.1044E+02  0.1966E+01
    -13.850  0.2091E+01  0.2070E+01
    -13.800 -0.7854E+00  0.2031E+01
    -13.750 -0.4993E+00  0.2006E+01
    -13.700 -0.1076E+00  0.2001E+01
    -13.650 -0.1180E-01  0.2000E+01
    -13.600 -0.7220E-03  0.2000E+01
    -13.550 -0.2551E-04  0.2000E+01
    -13.500 -0.5296E-06  0.2000E+01
    -13.450 -0.6527E-08  0.2000E+01
    -13.400 -0.3870E-09  0.2000E+01
    -13.350 -0.3783E-07  0.2000E+01
    -13.300 -0.2516E-05  0.2000E+01
    -13.250 -0.9910E-04  0.2000E+01
    -13.200 -0.2288E-02  0.2000E+01
    -13.150 -0.3038E-01  0.1998E+01
    -13.100 -0.2231E+00  0.1987E+01
    -13.050 -0.8149E+00  0.1946E+01
    -13.000 -0.7950E+00  0.1907E+01
    -12.950  0.3890E+01  0.2101E+01
    -12.900  0.1497E+02  0.2850E+01
    -12.850  0.2447E+02  0.4073E+01
    -12.800  0.2556E+02  0.5351E+01
    -12.750  0.2490E+02  0.6596E+01
    -12.700  0.2808E+02  0.8000E+01
    -12.650  0.2547E+02  0.9273E+01
    -12.600  0.1296E+02  0.9921E+01
    -12.550  0.5275E+01  0.1019E+02
    -12.500  0.1034E+02  0.1070E+02
    -12.450  0.1474E+02  0.1144E+02
    -12.400  0.1025E+02  0.1195E+02
    -12.350  0.9165E+01  0.1241E+02
    -12.300  0.1443E+02  0.1313E+02
    -12.250  0.1258E+02  0.1376E+02
    -12.200  0.5127E+01  0.1402E+02
    -12.150  0.6143E+01  0.1432E+02
    -12.100  0.1312E+02  0.1498E+02
    -12.050  0.1287E+02  0.1562E+02
    -12.000  0.1108E+02  0.1618E+02
    -11.950  0.2121E+02  0.1724E+02
    -11.900  0.3988E+02  0.1923E+02
    -11.850  0.6403E+02  0.2243E+02
    -11.800  0.8798E+02  0.2683E+02
    -11.750  0.9691E+02  0.3168E+02
    -11.700  0.9609E+02  0.3648E+02
    -11.650  0.9819E+02  0.4139E+02
    -11.600  0.1017E+03  0.4648E+02
    -11.550  0.1085E+03  0.5190E+02
    -11.500  0.1139E+03  0.5760E+02
    -11.450  0.1095E+03  0.6307E+02
    -11.400  0.1146E+03  0.6880E+02
    -11.350  0.1378E+03  0.7569E+02
    -11.300  0.1582E+03  0.8360E+02
    -11.250  0.1657E+03  0.9189E+02
    -11.200  0.1683E+03  0.1003E+03
    -11.150  0.1737E+03  0.1090E+03
    -11.100  0.1808E+03  0.1180E+03
    -11.050  0.1809E+03  0.1271E+03
    -11.000  0.1727E+03  0.1357E+03
    -10.950  0.1696E+03  0.1442E+03
    -10.900  0.1768E+03  0.1530E+03
    -10.850  0.1871E+03  0.1624E+03
    -10.800  0.1960E+03  0.1722E+03
    -10.750  0.1965E+03  0.1820E+03
    -10.700  0.1889E+03  0.1915E+03
    -10.650  0.1850E+03  0.2007E+03
    -10.600  0.1915E+03  0.2103E+03
    -10.550  0.2045E+03  0.2205E+03
    -10.500  0.2137E+03  0.2312E+03
    -10.450  0.2139E+03  0.2419E+03
    -10.400  0.2128E+03  0.2525E+03
    -10.350  0.2157E+03  0.2633E+03
    -10.300  0.2160E+03  0.2741E+03
    -10.250  0.2140E+03  0.2848E+03
    -10.200  0.2157E+03  0.2956E+03
    -10.150  0.2167E+03  0.3064E+03
    -10.100  0.2141E+03  0.3171E+03
    -10.050  0.2186E+03  0.3281E+03
    -10.000  0.2383E+03  0.3400E+03
     -9.950  0.2552E+03  0.3527E+03
     -9.900  0.2533E+03  0.3654E+03
     -9.850  0.2477E+03  0.3778E+03
     -9.800  0.2544E+03  0.3905E+03
     -9.750  0.2655E+03  0.4038E+03
     -9.700  0.2645E+03  0.4170E+03
     -9.650  0.2513E+03  0.4296E+03
     -9.600  0.2389E+03  0.4415E+03
     -9.550  0.2336E+03  0.4532E+03
     -9.500  0.2279E+03  0.4646E+03
     -9.450  0.2152E+03  0.4753E+03
     -9.400  0.1970E+03  0.4852E+03
     -9.350  0.1744E+03  0.4939E+03
     -9.300  0.1510E+03  0.5015E+03
     -9.250  0.1261E+03  0.5078E+03
     -9.200  0.8726E+02  0.5121E+03
     -9.150  0.3843E+02  0.5141E+03
     -9.100  0.5374E+01  0.5143E+03
     -9.050 -0.3783E+01  0.5141E+03
     -9.000 -0.2917E+01  0.5140E+03
     -8.950 -0.2268E+01  0.5139E+03
     -8.900  0.6184E+00  0.5139E+03
     -8.850  0.1403E+02  0.5146E+03
     -8.800  0.3367E+02  0.5163E+03
     -8.750  0.3942E+02  0.5183E+03
     -8.700  0.2732E+02  0.5196E+03
     -8.650  0.1912E+02  0.5206E+03
     -8.600  0.2649E+02  0.5219E+03
     -8.550  0.3523E+02  0.5237E+03
     -8.500  0.3377E+02  0.5254E+03
     -8.450  0.3000E+02  0.5269E+03
     -8.400  0.3057E+02  0.5284E+03
     -8.350  0.3032E+02  0.5299E+03
     -8.300  0.2930E+02  0.5314E+03
     -8.250  0.3104E+02  0.5329E+03
     -8.200  0.3517E+02  0.5347E+03
     -8.150  0.3635E+02  0.5365E+03
     -8.100  0.2505E+02  0.5377E+03
     -8.050  0.7734E+01  0.5381E+03
     -8.000 -0.9018E+00  0.5381E+03
     -7.950 -0.1363E+01  0.5380E+03
     -7.900 -0.4018E+00  0.5380E+03
     -7.850 -0.5775E-01  0.5380E+03
     -7.800 -0.6983E-02  0.5380E+03
     -7.750 -0.3146E-01  0.5380E+03
     -7.700 -0.2202E+00  0.5380E+03
     -7.650 -0.7275E+00  0.5380E+03
     -7.600 -0.2872E+00  0.5379E+03
     -7.550  0.4789E+01  0.5382E+03
     -7.500  0.1315E+02  0.5388E+03
     -7.450  0.1503E+02  0.5396E+03
     -7.400  0.1153E+02  0.5402E+03
     -7.350  0.1344E+02  0.5408E+03
     -7.300  0.1806E+02  0.5417E+03
     -7.250  0.2104E+02  0.5428E+03
     -7.200  0.2423E+02  0.5440E+03
     -7.150  0.2304E+02  0.5452E+03
     -7.100  0.1339E+02  0.5458E+03
     -7.050  0.3257E+01  0.5460E+03
     -7.000  0.5193E+01  0.5462E+03
     -6.950  0.1875E+02  0.5472E+03
     -6.900  0.2921E+02  0.5486E+03
     -6.850  0.2846E+02  0.5501E+03
     -6.800  0.2215E+02  0.5512E+03
     -6.750  0.1289E+02  0.5518E+03
     -6.700  0.4277E+01  0.5520E+03
     -6.650  0.5718E+01  0.5523E+03
     -6.600  0.1405E+02  0.5530E+03
     -6.550  0.1453E+02  0.5537E+03
     -6.500  0.6105E+01  0.5541E+03
     -6.450  0.7759E-01  0.5541E+03
     -6.400 -0.7837E+00  0.5540E+03
     -6.350 -0.2706E+00  0.5540E+03
     -6.300 -0.4197E-01  0.5540E+03
     -6.250 -0.4568E-02  0.5540E+03
     -6.200 -0.1681E-01  0.5540E+03
     -6.150 -0.1453E+00  0.5540E+03
     -6.100 -0.6634E+00  0.5540E+03
     -6.050 -0.1153E+01  0.5539E+03
     -6.000  0.2012E+01  0.5540E+03
     -5.950  0.1295E+02  0.5546E+03
     -5.900  0.2519E+02  0.5559E+03
     -5.850  0.2641E+02  0.5572E+03
     -5.800  0.1973E+02  0.5582E+03
     -5.750  0.1695E+02  0.5591E+03
     -5.700  0.1763E+02  0.5599E+03
     -5.650  0.1790E+02  0.5608E+03
     -5.600  0.1494E+02  0.5616E+03
     -5.550  0.9631E+01  0.5621E+03
     -5.500  0.1112E+02  0.5626E+03
     -5.450  0.1520E+02  0.5634E+03
     -5.400  0.1007E+02  0.5639E+03
     -5.350  0.2500E+01  0.5640E+03
     -5.300  0.4804E+01  0.5643E+03
     -5.250  0.1318E+02  0.5649E+03
     -5.200  0.1584E+02  0.5657E+03
     -5.150  0.1502E+02  0.5665E+03
     -5.100  0.1819E+02  0.5674E+03
     -5.050  0.2122E+02  0.5684E+03
     -5.000  0.1837E+02  0.5693E+03
     -4.950  0.9927E+01  0.5698E+03
     -4.900  0.7374E+01  0.5702E+03
     -4.850  0.1905E+02  0.5712E+03
     -4.800  0.3120E+02  0.5727E+03
     -4.750  0.3049E+02  0.5742E+03
     -4.700  0.2161E+02  0.5753E+03
     -4.650  0.1041E+02  0.5758E+03
     -4.600  0.4191E+01  0.5761E+03
     -4.550  0.1192E+02  0.5767E+03
     -4.500  0.2850E+02  0.5781E+03
     -4.450  0.3859E+02  0.5800E+03
     -4.400  0.3743E+02  0.5819E+03
     -4.350  0.3817E+02  0.5838E+03
     -4.300  0.4510E+02  0.5860E+03
     -4.250  0.4392E+02  0.5882E+03
     -4.200  0.2768E+02  0.5896E+03
     -4.150  0.8111E+01  0.5900E+03
     -4.100  0.2137E+01  0.5901E+03
     -4.050  0.1233E+02  0.5908E+03
     -4.000  0.2486E+02  0.5920E+03
     -3.950  0.2943E+02  0.5935E+03
     -3.900  0.3263E+02  0.5951E+03
     -3.850  0.3343E+02  0.5968E+03
     -3.800  0.2120E+02  0.5978E+03
     -3.750  0.9013E+01  0.5983E+03
     -3.700  0.1088E+02  0.5988E+03
     -3.650  0.1466E+02  0.5996E+03
     -3.600  0.1392E+02  0.6003E+03
     -3.550  0.1686E+02  0.6011E+03
     -3.500  0.2160E+02  0.6022E+03
     -3.450  0.2093E+02  0.6032E+03
     -3.400  0.1273E+02  0.6039E+03
     -3.350  0.2818E+01  0.6040E+03
     -3.300  0.1049E+01  0.6041E+03
     -3.250  0.8873E+01  0.6045E+03
     -3.200  0.1873E+02  0.6054E+03
     -3.150  0.2690E+02  0.6068E+03
     -3.100  0.3146E+02  0.6084E+03
     -3.050  0.2567E+02  0.6096E+03
     -3.000  0.1790E+02  0.6105E+03
     -2.950  0.2005E+02  0.6115E+03
     -2.900  0.2482E+02  0.6128E+03
     -2.850  0.2569E+02  0.6141E+03
     -2.800  0.2623E+02  0.6154E+03
     -2.750  0.2570E+02  0.6167E+03
     -2.700  0.1824E+02  0.6176E+03
     -2.650  0.8351E+01  0.6180E+03
     -2.600  0.1025E+02  0.6185E+03
     -2.550  0.2368E+02  0.6197E+03
     -2.500  0.3336E+02  0.6213E+03
     -2.450  0.3450E+02  0.6231E+03
     -2.400  0.3124E+02  0.6246E+03
     -2.350  0.2500E+02  0.6259E+03
     -2.300  0.1992E+02  0.6269E+03
     -2.250  0.1506E+02  0.6276E+03
     -2.200  0.6648E+01  0.6280E+03
     -2.150  0.3157E+01  0.6281E+03
     -2.100  0.1014E+02  0.6286E+03
     -2.050  0.1573E+02  0.6294E+03
     -2.000  0.9865E+01  0.6299E+03
     -1.950  0.1975E+01  0.6300E+03
     -1.900  0.4250E+01  0.6302E+03
     -1.850  0.1339E+02  0.6309E+03
     -1.800  0.1541E+02  0.6317E+03
     -1.750  0.7436E+01  0.6320E+03
     -1.700  0.5614E+00  0.6321E+03
     -1.650 -0.8261E+00  0.6320E+03
     -1.600 -0.3338E+00  0.6320E+03
     -1.550 -0.5707E-01  0.6320E+03
     -1.500 -0.5173E-02  0.6320E+03
     -1.450 -0.2652E-03  0.6320E+03
     -1.400 -0.7905E-05  0.6320E+03
     -1.350 -0.1390E-06  0.6320E+03
     -1.300 -0.1453E-08  0.6320E+03
     -1.250 -0.9077E-11  0.6320E+03
     -1.200 -0.3553E-13  0.6320E+03
     -1.150  0.0000E+00  0.6320E+03
     -1.100  0.0000E+00  0.6320E+03
     -1.050  0.0000E+00  0.6320E+03
     -1.000  0.0000E+00  0.6320E+03
     -0.950  0.0000E+00  0.6320E+03
     -0.900  0.0000E+00  0.6320E+03
     -0.850  0.0000E+00  0.6320E+03
     -0.800  0.0000E+00  0.6320E+03
     -0.750  0.0000E+00  0.6320E+03
     -0.700  0.0000E+00  0.6320E+03
     -0.650  0.0000E+00  0.6320E+03
     -0.600  0.0000E+00  0.6320E+03
     -0.550  0.0000E+00  0.6320E+03
     -0.500  0.0000E+00  0.6320E+03
     -0.450  0.0000E+00  0.6320E+03
     -0.400  0.0000E+00  0.6320E+03
     -0.350  0.0000E+00  0.6320E+03
     -0.300  0.0000E+00  0.6320E+03
     -0.250  0.0000E+00  0.6320E+03
     -0.200  0.0000E+00  0.6320E+03
     -0.150  0.0000E+00  0.6320E+03
     -0.100  0.0000E+00  0.6320E+03
     -0.050  0.0000E+00  0.6320E+03
      0.000  0.0000E+00  0.6320E+03
