   50   50    1    1
  0.2517325E+02  0.1079700E-08  0.1079700E-08  0.1079700E-08  0.5000000E-14
 423.000000000000000
  CAR 
 Hg                                      
  600    1  316
 
  0.0000000E+00  0.0000000E+00  0.0000000E+00  0.1000000E+01
   1      -13.977313
   2      -12.891964
   3      -12.820667
   4      -12.725248
   5      -12.669136
   6      -12.480579
   7      -12.307170
   8      -12.103313
   9      -11.950860
  10      -11.918625
  11      -11.852585
  12      -11.829097
  13      -11.823175
  14      -11.812828
  15      -11.774738
  16      -11.764764
  17      -11.731830
  18      -11.723206
  19      -11.693056
  20      -11.664185
  21      -11.647186
  22      -11.642198
  23      -11.624881
  24      -11.603009
  25      -11.559932
  26      -11.549260
  27      -11.534910
  28      -11.522265
  29      -11.517576
  30      -11.489895
  31      -11.488696
  32      -11.444213
  33      -11.435815
  34      -11.398702
  35      -11.389238
  36      -11.383852
  37      -11.377713
  38      -11.349814
  39      -11.341502
  40      -11.329367
  41      -11.311955
  42      -11.304336
  43      -11.298964
  44      -11.276224
  45      -11.271105
  46      -11.253708
  47      -11.246716
  48      -11.228282
  49      -11.224399
  50      -11.206113
  51      -11.191180
  52      -11.186955
  53      -11.174442
  54      -11.156431
  55      -11.152251
  56      -11.141520
  57      -11.123217
  58      -11.115051
  59      -11.102915
  60      -11.094452
  61      -11.084678
  62      -11.070292
  63      -11.064829
  64      -11.053824
  65      -11.042083
  66      -11.028497
  67      -11.021496
  68      -11.005407
  69      -10.997084
  70      -10.973783
  71      -10.959672
  72      -10.956677
  73      -10.944133
  74      -10.936802
  75      -10.922438
  76      -10.906831
  77      -10.904921
  78      -10.892742
  79      -10.878935
  80      -10.864803
  81      -10.857093
  82      -10.847154
  83      -10.830281
  84      -10.822853
  85      -10.817963
  86      -10.801065
  87      -10.797151
  88      -10.786450
  89      -10.777531
  90      -10.771519
  91      -10.760468
  92      -10.747512
  93      -10.733286
  94      -10.721961
  95      -10.708929
  96      -10.702748
  97      -10.692823
  98      -10.681769
  99      -10.676193
 100      -10.661735
 101      -10.642734
 102      -10.633494
 103      -10.630956
 104      -10.612660
 105      -10.603971
 106      -10.596358
 107      -10.590057
 108      -10.575831
 109      -10.564193
 110      -10.553951
 111      -10.543873
 112      -10.539242
 113      -10.531987
 114      -10.520457
 115      -10.513731
 116      -10.498671
 117      -10.486425
 118      -10.483338
 119      -10.476075
 120      -10.465903
 121      -10.457480
 122      -10.449595
 123      -10.430692
 124      -10.425973
 125      -10.417982
 126      -10.407534
 127      -10.396050
 128      -10.381884
 129      -10.375297
 130      -10.368394
 131      -10.362258
 132      -10.352066
 133      -10.342452
 134      -10.338983
 135      -10.327554
 136      -10.308408
 137      -10.302783
 138      -10.299630
 139      -10.295159
 140      -10.273054
 141      -10.267839
 142      -10.258800
 143      -10.249411
 144      -10.235306
 145      -10.222653
 146      -10.220660
 147      -10.212815
 148      -10.205680
 149      -10.198054
 150      -10.184313
 151      -10.177328
 152      -10.169643
 153      -10.150654
 154      -10.143137
 155      -10.138967
 156      -10.129558
 157      -10.121281
 158      -10.110995
 159      -10.104383
 160      -10.093847
 161      -10.089935
 162      -10.073875
 163      -10.056959
 164      -10.051322
 165      -10.042203
 166      -10.037092
 167      -10.021360
 168      -10.017933
 169      -10.012106
 170      -10.000974
 171       -9.988085
 172       -9.984991
 173       -9.982765
 174       -9.979909
 175       -9.969591
 176       -9.955163
 177       -9.947788
 178       -9.943250
 179       -9.937079
 180       -9.925594
 181       -9.921327
 182       -9.912884
 183       -9.905776
 184       -9.892914
 185       -9.879057
 186       -9.874767
 187       -9.871806
 188       -9.866466
 189       -9.855094
 190       -9.841458
 191       -9.836525
 192       -9.823974
 193       -9.820251
 194       -9.814574
 195       -9.803850
 196       -9.797439
 197       -9.789851
 198       -9.778461
 199       -9.775695
 200       -9.766863
 201       -9.760351
 202       -9.753296
 203       -9.743875
 204       -9.740584
 205       -9.732084
 206       -9.721728
 207       -9.717195
 208       -9.707566
 209       -9.706235
 210       -9.694535
 211       -9.679448
 212       -9.675111
 213       -9.672836
 214       -9.659662
 215       -9.652507
 216       -9.646667
 217       -9.637817
 218       -9.628415
 219       -9.619528
 220       -9.609259
 221       -9.597676
 222       -9.590441
 223       -9.585987
 224       -9.582037
 225       -9.566653
 226       -9.552424
 227       -9.546096
 228       -9.538400
 229       -9.537449
 230       -9.531377
 231       -9.517638
 232       -9.507312
 233       -9.497311
 234       -9.487766
 235       -9.483999
 236       -9.469165
 237       -9.460097
 238       -9.449286
 239       -9.442847
 240       -9.431708
 241       -9.420038
 242       -9.415068
 243       -9.404287
 244       -9.388019
 245       -9.377038
 246       -9.363525
 247       -9.356902
 248       -9.352318
 249       -9.329224
 250       -9.321467
 251       -9.292493
 252       -9.283068
 253       -9.273008
 254       -9.256044
 255       -9.238798
 256       -9.227561
 257       -9.195706
 258       -8.819155
 259       -8.791833
 260       -8.738591
 261       -8.621262
 262       -8.568624
 263       -8.520413
 264       -8.436227
 265       -8.387756
 266       -8.308115
 267       -8.250765
 268       -8.174891
 269       -8.149163
 270       -7.493049
 271       -7.341754
 272       -7.237265
 273       -7.158131
 274       -6.950847
 275       -6.895729
 276       -6.805561
 277       -6.600352
 278       -5.928937
 279       -5.868786
 280       -5.751798
 281       -5.638625
 282       -5.472970
 283       -5.248801
 284       -5.117307
 285       -5.020588
 286       -4.844299
 287       -4.802542
 288       -4.715368
 289       -4.531552
 290       -4.466324
 291       -4.444154
 292       -4.354320
 293       -4.325510
 294       -4.275369
 295       -4.237612
 296       -4.034210
 297       -3.974641
 298       -3.876688
 299       -3.867020
 300       -3.688897
 301       -3.553183
 302       -3.460036
 303       -3.225880
 304       -3.129277
 305       -3.093438
 306       -2.969035
 307       -2.894083
 308       -2.810026
 309       -2.736648
 310       -2.567527
 311       -2.516436
 312       -2.448163
 313       -2.392489
 314       -2.287426
 315       -2.076107
 316       -1.843166
