 vasp.5.2.11 18Jan11 complex 
 executed on          Marenostrum date 2011.07.25  10:52:26
 running on    8 nodes
 distr:  one band on    2 nodes,    4 groups


--------------------------------------------------------------------------------------------------------


 INCAR:
 POTCAR:   Hg: s-lok R=3.1 Ra=2.8 real-opt[3.2-6.2
 POTCAR:   Hg: s-lok R=3.1 Ra=2.8 real-opt[3.2-6.2
   VRHFIN =Hg: 10s 2d fine mesh  CA                                             
   LEXCH  = CA                                                                  
   EATOM  =     0.0000 eV,  116.0819 Ry                                         
                                                                                
   TITEL  = US Hg, faked                                                        
   LULTRA =        T    use ultrasoft PP ?                                      
   IUNSCR =        1    unscreen: 0-lin 1-nonlin 2-no                           
   RPACOR =   -1.000    partial core radius                                     
   POMASS =  200.590; ZVAL   =   12.000    mass and valenz                      
   RCORE  =    3.050    outmost cutoff radius                                   
   RWIGS  =    3.050; RWIGS  =    1.614    wigner-seitz radius (au A)           
   ENMAX  =  158.977; ENMIN  =  119.233 eV                                      
   EAUG   =  265.444                                                            
                                                                                
   RCLOC  =    2.106    cutoff for local pot                                    
   LCOR   =        T    correct aug charges                                     
   RMAX   =    3.657    core radius for proj-oper                               
   QCUT   =   -3.000; QGAM   =    6.837    optimization parameters              
                                                                                
   Description                                                                  
     l     E      TYP  RCUT    TYP  RCUT                                        
     2   .000      7  2.470    23  3.050                                        
     2   .000      7  2.470    23  3.050                                        
     0   .000     15  2.720    23  2.720                                        
     1  -.200     15  2.720    23  3.050                                        
END of PSCTR-controll parameters                                                
  local pseudopotential read in
  atomic valenz-charges read in
  non local Contribution for L= 2  read in
    real space projection operators read in
  non local Contribution for L= 2  read in
    real space projection operators read in
  non local Contribution for L= 1  read in
    real space projection operators read in
    augmentation charges read in
 
   number of l-projection  operators is LMAX  = 3
   number of lm-projection operators is LMMAX = 13
 
 Hg: s-lok R=3.1 Ra=2.8 real-opt[3.2-6.2:
 energy of atom  1       EATOM=    0.0000
 
 
 POSCAR: Hg: 50 Atome emty-core PP               
  positions in direct lattice
  No initial velocities read in
 exchange correlation table for  LEXCH =        2
   RHO(1)=    0.500       N(1)  =     2000
   RHO(2)=  100.500       N(2)  =     4000

 VTST: version 2.03d, (02/18/09)

 CHAIN: initializing optimizer
 
 OPT: Using VASP Dynamics algorithm
 CHAIN: Read ICHAIN  0
 


--------------------------------------------------------------------------------------------------------


 ion  position               nearest neighbor table
   1  0.300  0.973  0.680-  35 2.86  38 2.89   3 3.00  50 3.00  19 3.11   2 3.31  49 3.31   4 3.39
                            44 3.59  33 3.64  26 3.69
   2  0.100  0.867  0.887-   5 2.67  29 2.90  37 3.02  30 3.07  47 3.07   1 3.31  19 3.36  49 3.36
                             8 3.47  48 3.49   3 3.49  13 3.78
   3  0.423  0.858  0.901-   1 3.00  47 3.04  19 3.08  30 3.10  28 3.13   4 3.28  16 3.36  31 3.42
                             2 3.49  18 3.50  44 3.70
   4  0.614  0.945  0.681-  35 2.89  28 3.05  50 3.10  48 3.14  45 3.19   3 3.28   8 3.34   1 3.39
                            44 3.41  20 3.53  39 3.54
   5  0.971  0.656  0.884-  12 2.42   2 2.67  13 3.17  47 3.21  28 3.39  25 3.42  45 3.67  49 3.67
                            14 3.69  29 3.78  41 3.85
   6  0.352  0.342  0.113-  42 2.68  14 3.24  19 3.25  31 3.27  27 3.29  15 3.33  23 3.46  13 3.62
                            10 3.65  34 3.70   9 3.72
   7  0.323  0.435  0.683-  47 2.76  14 2.90  22 2.95   9 3.04  50 3.06  44 3.13  15 3.15  27 3.53
                            38 3.59  11 3.82
   8  0.801  0.978  0.925-  29 2.62  10 2.93  37 2.98  48 3.09  16 3.09  36 3.22   4 3.34  28 3.35
                             2 3.47  17 3.60
   9  0.356  0.279  0.452-  27 2.68  50 3.02  43 3.03   7 3.04  35 3.14  34 3.51  42 3.51  38 3.54
                             6 3.72  33 3.77
  10  0.611  0.151  0.009-  36 2.77  34 2.87  17 2.88   8 2.93  16 3.05  18 3.57  19 3.59   6 3.65
                            15 3.67  23 3.75  50 3.77
  11  0.665  0.522  0.668-  28 2.74  15 2.87  45 2.88  41 2.97  44 2.98  43 3.21  40 3.22  39 3.35
                            36 3.52   7 3.82
  12  0.895  0.464  0.971-   5 2.42  36 2.99  25 3.07  14 3.15  17 3.18  23 3.30  21 3.35  13 3.46
                            41 3.56
  13  0.143  0.606  0.116-  30 3.01  21 3.03  31 3.13   5 3.17  46 3.19  27 3.30  47 3.42  12 3.46
                            14 3.56   6 3.62   2 3.78  25 3.81
  14  0.158  0.371  0.886-   7 2.90  37 2.94  12 3.15  47 3.18  19 3.22   6 3.24  38 3.31  13 3.56
                             5 3.69  41 3.73  42 3.74  22 3.81
  15  0.529  0.458  0.888-  11 2.87  23 3.05   7 3.15  28 3.18   6 3.33  31 3.36  36 3.37  47 3.56
                            50 3.61  10 3.67
  16  0.624  0.899  0.135-  18 2.82  10 3.05   8 3.09  32 3.12  25 3.17   3 3.36  20 3.43  34 3.44
                            31 3.53  29 3.62  28 3.83
  17  0.829  0.231  0.140-  34 2.81  10 2.88  21 3.09  12 3.18  23 3.24  36 3.37  37 3.38  42 3.50
                            24 3.50  29 3.58   8 3.60
  18  0.388  0.992  0.194-  30 2.16  16 2.82  35 3.10  26 3.12  19 3.25  34 3.30   3 3.50  10 3.57
                            33 3.71  42 3.74
  19  0.290  0.108  0.934-  37 2.85   3 3.08   1 3.11  14 3.22  18 3.25   6 3.25   2 3.36  50 3.37
                            30 3.41  38 3.57  10 3.59  42 3.62
  20  0.778  0.980  0.401-  48 3.06  34 3.18  32 3.27  24 3.30  39 3.33  45 3.39  16 3.43   4 3.53
                            35 3.53  46 3.58  33 3.70  29 3.77
  21  0.978  0.438  0.269-  40 2.54  42 2.88  24 2.95  13 3.03  17 3.09  12 3.35  46 3.37  25 3.38
                            27 3.57  22 3.57  23 3.86
  22  0.086  0.516  0.572-  41 2.46  49 2.93   7 2.95  27 3.12  21 3.57  47 3.58  46 3.66  40 3.68
                            24 3.76  14 3.81  38 3.85  45 3.86
  23  0.644  0.469  0.146-  25 2.67  31 2.93  43 2.97  15 3.05  40 3.19  17 3.24  12 3.30  34 3.37
                             6 3.46  10 3.75  21 3.86  32 3.87
  24  0.966  0.219  0.433-  33 2.64  21 2.95  38 2.99  41 3.07  42 3.13  39 3.19  20 3.30  17 3.50
                            40 3.58  48 3.64  22 3.76
  25  0.797  0.663  0.149-  23 2.67  12 3.07  46 3.08  16 3.17  40 3.23  32 3.36  29 3.37  21 3.38
                             5 3.42  28 3.71  13 3.81
  26  0.289  0.800  0.385-  30 2.88  35 3.06  33 3.09  18 3.12  49 3.18  44 3.21  27 3.23  46 3.24
                            32 3.39  31 3.67   1 3.69
  27  0.288  0.502  0.365-   9 2.68  43 2.78  22 3.12  26 3.23   6 3.29  13 3.30  31 3.34   7 3.53
                            21 3.57  42 3.64  44 3.71
  28  0.666  0.714  0.836-  11 2.74  45 3.00   4 3.05   3 3.13  15 3.18   8 3.35   5 3.39  44 3.41
                            25 3.71  16 3.83
  29  0.956  0.928  0.105-   8 2.62   2 2.90  37 3.11  46 3.22  30 3.25  25 3.37  17 3.58  16 3.62
                            20 3.77   5 3.78  33 3.82
  30  0.249  0.863  0.129-  18 2.16  26 2.88  13 3.01   2 3.07   3 3.10  31 3.15  29 3.25  19 3.41
                            33 3.74  46 3.74
  31  0.431  0.635  0.125-  23 2.93  13 3.13  30 3.15   6 3.27  27 3.34  15 3.36   3 3.42  32 3.43
                            16 3.53  43 3.61  26 3.67  47 3.73
  32  0.596  0.740  0.375-  43 2.85  44 3.02  16 3.12  20 3.27  45 3.31  40 3.36  25 3.36  26 3.39
                            35 3.41  31 3.43  23 3.87
  33  0.117  0.029  0.403-  24 2.64  26 3.09  42 3.13  38 3.14  49 3.33  46 3.43   1 3.64  48 3.64
                            20 3.70  18 3.71  30 3.74   9 3.77  35 3.78  29 3.82
  34  0.611  0.186  0.273-  17 2.81  10 2.87  20 3.18  39 3.22  18 3.30  35 3.30  23 3.37  16 3.44
                             9 3.51  43 3.57   6 3.70
  35  0.460  0.008  0.471-   1 2.86   4 2.89  26 3.06  18 3.10  50 3.12   9 3.14  34 3.30  32 3.41
                            20 3.53  39 3.66  33 3.78  44 3.79
  36  0.765  0.261  0.835-  10 2.77  41 2.93  12 2.99  39 3.13   8 3.22  37 3.28  15 3.37  17 3.37
                            11 3.52  50 3.62
  37  0.028  0.135  0.918-  19 2.85  14 2.94   8 2.98   2 3.02  38 3.04  29 3.11  36 3.28  17 3.38
                            42 3.55  48 3.58
  38  0.123  0.171  0.656-   1 2.89  24 2.99  37 3.04  33 3.14  48 3.19  14 3.31  41 3.36   9 3.54
                            19 3.57   7 3.59  50 3.77  22 3.85
  39  0.697  0.235  0.554-  50 2.91  41 3.03  36 3.13  24 3.19  34 3.22  20 3.33  11 3.35  40 3.46
                             4 3.54  43 3.56  35 3.66  48 3.74
  40  0.793  0.499  0.400-  21 2.54  43 2.71  41 3.16  23 3.19  11 3.22  25 3.23  45 3.34  32 3.36
                            39 3.46  46 3.51  24 3.58  22 3.68
  41  0.908  0.396  0.648-  22 2.46  36 2.93  11 2.97  39 3.03  24 3.07  40 3.16  38 3.36  12 3.56
                            14 3.73   5 3.85
  42  0.146  0.240  0.206-   6 2.68  21 2.88  33 3.13  24 3.13  17 3.50   9 3.51  37 3.55  19 3.62
                            27 3.64  14 3.74  18 3.74
  43  0.542  0.483  0.401-  40 2.71  27 2.78  32 2.85  23 2.97   9 3.03  11 3.21  44 3.27  39 3.56
                            34 3.57  31 3.61
  44  0.450  0.685  0.607-  11 2.98  32 3.02   7 3.13  47 3.15  26 3.21  43 3.27   4 3.41  28 3.41
                             1 3.59   3 3.70  27 3.71  35 3.79
  45  0.807  0.736  0.597-  48 2.85  11 2.88  49 2.95  28 3.00   4 3.19  32 3.31  40 3.34  20 3.39
                            46 3.52   5 3.67  22 3.86
  46  0.999  0.742  0.335-  49 2.89  25 3.08  13 3.19  29 3.22  26 3.24  21 3.37  33 3.43  40 3.51
                            45 3.52  20 3.58  22 3.66  30 3.74
  47  0.261  0.640  0.824-   7 2.76   3 3.04   2 3.07  44 3.15  14 3.18   5 3.21  13 3.42  15 3.56
                            22 3.58  49 3.61  31 3.73
  48  0.902  0.975  0.656-  45 2.85  49 2.87  20 3.06   8 3.09   4 3.14  38 3.19   2 3.49  37 3.58
                            24 3.64  33 3.64  39 3.74
  49  0.075  0.786  0.587-  48 2.87  46 2.89  22 2.93  45 2.95  26 3.18   1 3.31  33 3.33   2 3.36
                            47 3.61   5 3.67
  50  0.469  0.193  0.693-  39 2.91   1 3.00   9 3.02   7 3.06   4 3.10  35 3.12  19 3.37  15 3.61
                            36 3.62  38 3.77  10 3.77
 

IMPORTANT INFORMATION: All symmetrisations will be switched off!
NOSYMM: (Re-)initialisation of all symmetry stuff for point group C_1.

 
 
 KPOINTS: K dimer                                 
  k-points in cartesian coordinates


--------------------------------------------------------------------------------------------------------




 Dimension of arrays:
   k-points           NKPTS =      1   k-points in BZ     NKDIM =      1   number of bands    NBANDS=    316
   number of dos      NEDOS =    301   number of ions     NIONS =     50
   non local maximal  LDIM  =      3   non local SUM 2l+1 LMDIM =     13
   total plane-waves  NPLWV =  27000
   max r-space proj   IRMAX =    671   max aug-charges    IRDMAX=   1851
   dimension x,y,z NGX =    30 NGY =   30 NGZ =   30
   dimension x,y,z NGXF=    48 NGYF=   48 NGZF=   48
   support grid    NGXF=    48 NGYF=   48 NGZF=   48
   ions per type =              50
 NGX,Y,Z   is equivalent  to a cutoff of   4.62,  4.62,  4.62 a.u.
 NGXF,Y,Z  is equivalent  to a cutoff of   7.39,  7.39,  7.39 a.u.


 I would recommend the setting:
   dimension x,y,z NGX =    31 NGY =   31 NGZ =   31

 ----------------------------------------------------------------------------- 
|                                                                             |
|           W    W    AA    RRRRR   N    N  II  N    N   GGGG   !!!           |
|           W    W   A  A   R    R  NN   N  II  NN   N  G    G  !!!           |
|           W    W  A    A  R    R  N N  N  II  N N  N  G       !!!           |
|           W WW W  AAAAAA  RRRRR   N  N N  II  N  N N  G  GGG   !            |
|           WW  WW  A    A  R   R   N   NN  II  N   NN  G    G                |
|           W    W  A    A  R    R  N    N  II  N    N   GGGG   !!!           |
|                                                                             |
|      Your FFT grids (NGX,NGY,NGZ) are not sufficient for an accurate        |
|      calculation.                                                           |
|      The results might be wrong                                             |
|      good settings for NGX NGY and  NGZ are                                 |
|                        31  31  and  31                                      |
|     Mind: This setting results in a small but reasonable wrap around error  |
|     It is also necessary to adjust these  values to the FFT routines you use|
|                                                                             |
 ----------------------------------------------------------------------------- 

 SYSTEM =  Hg                                      
 POSCAR =  Hg: 50 Atome emty-core PP               

 Startparameter for this run:
   NWRITE =      2    write-flag & timer
   PREC   = normal    normal or accurate (medium, high low for compatibility)
   ISTART =      0    job   : 0-new  1-cont  2-samecut
   ICHARG =      2    charge: 1-file 2-atom 10-const
   ISPIN  =      1    spin polarized calculation?
   LNONCOLLINEAR =      F non collinear calculations
   LSORBIT =      F    spin-orbit coupling
   INIWAV =      1    electr: 0-lowe 1-rand  2-diag
   LASPH  =      F    aspherical Exc in radial PAW
   METAGGA=      F    non-selfconsistent MetaGGA calc.

 Electronic Relaxation 1
   ENCUT  =  140.0 eV  10.29 Ry    3.21 a.u.  10.42 10.42 10.42*2*pi/ulx,y,z
   ENINI  =  140.0     initial cutoff
   ENAUG  =  265.4 eV  augmentation charge cutoff
   NELM   =     13;   NELMIN=  3; NELMDL=  7     # of ELM steps 
   EDIFF  = 0.1E-03   stopping-criterion for ELM
   LREAL  =      T    real-space projection
   LCOMPAT=      F    compatible to vasp.4.4
   GGA_COMPAT  = T    GGA compatible to vasp.4.4-vasp.4.6
   LMAXPAW     = -100 max onsite density
   LMAXMIX     =    2 max onsite mixed and CHGCAR
   VOSKOWN=      0    Vosko Wilk Nusair interpolation
   ROPT   =    0.00000
 Ionic relaxation
   EDIFFG = 0.1E-02   stopping-criterion for IOM
   NSW    =      0    number of steps for IOM
   NBLOCK =      1;   KBLOCK =      1    inner block; outer block 
   IBRION =     -1    ionic relax: 0-MD 1-quasi-New 2-CG
   NFREE  =      0    steps in history (QN), initial steepest desc. (CG)
   ISIF   =      2    stress and relaxation
   IWAVPR =     10    prediction:  0-non 1-charg 2-wave 3-comb
   ISYM   =      0    0-nonsym 1-usesym 2-fastsym
   LCORR  =      T    Harris-Foulkes like correction to forces

   POTIM  = 5.0000    time-step for ionic-motion
   TEIN   =    0.0    initial temperature
   TEBEG  =  423.0;   TEEND  = 423.0 temperature during run
   SMASS  =   0.50    Nose mass-parameter (am)
   estimated Nose-frequenzy (Omega)   =  0.42E+14 period in steps = 29.84 mass=   0.444E-27a.u.
   NPACO  =    256;   APACO  = 10.0  distance and # of slots for P.C.
   PSTRESS=    0.0 pullay stress

  Mass of Ions in am
   POMASS = 200.59
  Ionic Valenz
   ZVAL   =  12.00
  Atomic Wigner-Seitz radii
   RWIGS  =  -1.00
  virtual crystal weights 
   VCA    =   1.00
   NELECT =     600.0000    total number of electrons
   NUPDOWN=      -1.0000    fix difference up-down

 DOS related values:
   EMIN   = -15.00;   EMAX   =  0.00  energy-range for DOS
   EFERMI =   0.00
   ISMEAR =     1;   SIGMA  =   0.10  broadening in eV -4-tet -1-fermi 0-gaus

 Electronic relaxation 2 (details)
   IALGO  =     48    algorithm
   LDIAG  =      T    sub-space diagonalisation (order eigenvalues)
   LSUBROT=      T    optimize rotation matrix (better conditioning)
   TURBO    =      0    0=normal 1=particle mesh
   IRESTART =      0    0=no restart 2=restart with 2 vectors
   NREBOOT  =      0    no. of reboots
   NMIN     =      0    reboot dimension
   EREF     =   0.00    reference energy to select bands
   IMIX   =      4    mixing-type and parameters
     AMIX     =   0.80;   BMIX     =  2.50
     AMIX_MAG =   3.20;   BMIX_MAG =  2.50
     AMIN     =   0.10
     WC   =   100.;   INIMIX=   1;  MIXPRE=   1

 Intra band minimization:
   WEIMIN = 0.0000     energy-eigenvalue tresh-hold
   EBREAK =  0.79E-07  absolut break condition
   DEPER  =   0.30     relativ break condition  

   TIME   =   0.40     timestep for ELM

  volume/ion in A,a.u.               =      25.17       169.88
  Fermi-wavevector in a.u.,A,eV,Ry     =   1.278857  2.416690 22.252008  1.635476
  Thomas-Fermi vector in A             =   2.411376
 
 Write flags
   LWAVE  =      F    write WAVECAR
   LCHARG =      F    write CHGCAR
   LVTOT  =      F    write LOCPOT, total local potential
   LVHAR  =      F    write LOCPOT, Hartree potential only
   LELF   =      F    write electronic localiz. function (ELF)
   LORBIT =      0    0 simple, 1 ext, 2 COOP (PROOUT)


 Dipole corrections
   LMONO  =      F    monopole corrections only (constant potential shift)
   LDIPOL =      F    correct potential (dipole corrections)
   IDIPOL =      0    1-x, 2-y, 3-z, 4-all directions 
   EPSILON=  1.0000000 bulk dielectric constant

 Exchange correlation treatment:
   GGA     =    --    GGA type
   LEXCH   =     2    internal setting for exchange type
   VOSKOWN=      0    Vosko Wilk Nusair interpolation
   LHFCALC =     F    Hartree Fock is set to
   LHFONE  =     F    Hartree Fock one center treatment
   AEXX    =    0.0000 exact exchange contribution

 Linear response parameters
   LEPSILON=     F    determine dielectric tensor
   LRPA    =     F    only Hartree local field effects (RPA)
   LNABLA  =     F    use nabla operator in PAW spheres
   LVEL    =     F    velocity operator in full k-point grid
   LINTERFAST=   F  fast interpolation
   KINTER  =     0    interpolate to denser k-point grid
   CSHIFT  =0.1000    complex shift for real part using Kramers Kronig
   OMEGAMAX=  -1.0    maximum frequency
   RTIME   =    0.100 relaxation time in fs

 Orbital magnetization related:
   ORBITALMAG=     F  switch on orbital magnetization
   LCHIMAG   =     F  perturbation theory with respect to B field



--------------------------------------------------------------------------------------------------------


 Static calculation
 charge density and potential will be updated during run
 non-spin polarized calculation
 RMM-DIIS sequential band-by-band
 perform sub-space diagonalisation
    before iterative eigenvector-optimisation
 modified Broyden-mixing scheme, WC =      100.0
 initial mixing is a Kerker type mixing with AMIX =  0.8000 and BMIX =      2.5000
 Hartree-type preconditioning will be used
 using additional bands  16
 real space projection scheme for non local part
 calculate Harris-corrections to forces   (improved forces if not selfconsistent)
 use of overlap-Matrix (Vanderbilt PP)
 Methfessel and Paxton  Order N= 1 SIGMA  =   0.10


--------------------------------------------------------------------------------------------------------


  energy-cutoff  :      140.00
  volume of cell :     1258.66
      direct lattice vectors                 reciprocal lattice vectors
    10.797000000  0.000000000  0.000000000     0.092618320  0.000000000  0.000000000
     0.000000000 10.797000000  0.000000000     0.000000000  0.092618320  0.000000000
     0.000000000  0.000000000 10.797000000     0.000000000  0.000000000  0.092618320

  length of vectors
    10.797000000 10.797000000 10.797000000     0.092618320  0.092618320  0.092618320


 
 k-points in units of 2pi/SCALE and weight: K dimer                                 
   0.00000000  0.00000000  0.00000000       1.000
 
 k-points in reciprocal lattice and weights: K dimer                                 
   0.00000000  0.00000000  0.00000000       1.000
 
 position of ions in fractional coordinates (direct lattice) 
   0.30038700  0.97256200  0.67990100
   0.10039900  0.86661800  0.88658600
   0.42324900  0.85784400  0.90079000
   0.61355400  0.94454300  0.68085300
   0.97062700  0.65631500  0.88409500
   0.35185700  0.34241900  0.11277200
   0.32256100  0.43533000  0.68330900
   0.80125700  0.97793800  0.92463100
   0.35561300  0.27920800  0.45175400
   0.61084300  0.15115600  0.00913500
   0.66497800  0.52222700  0.66841500
   0.89504800  0.46396300  0.97109200
   0.14344200  0.60556200  0.11626200
   0.15832600  0.37085300  0.88569300
   0.52914500  0.45790500  0.88785100
   0.62384600  0.89889200  0.13545600
   0.82879500  0.23141000  0.13957100
   0.38764900  0.99248300  0.19400400
   0.29019600  0.10818400  0.93377000
   0.77819100  0.98028900  0.40100800
   0.97838300  0.43760100  0.26907000
   0.08608600  0.51554300  0.57157900
   0.64430500  0.46853800  0.14563000
   0.96627500  0.21916200  0.43302800
   0.79705900  0.66281100  0.14947100
   0.28851000  0.79993800  0.38522900
   0.28803000  0.50167000  0.36481300
   0.66572800  0.71361500  0.83563300
   0.95610600  0.92757300  0.10475300
   0.24943400  0.86349100  0.12894200
   0.43130600  0.63485200  0.12498600
   0.59624400  0.73994800  0.37490800
   0.11745300  0.02929100  0.40252400
   0.61058700  0.18556100  0.27315200
   0.46013900  0.00811500  0.47108400
   0.76472100  0.26056500  0.83528500
   0.02799800  0.13452100  0.91821500
   0.12293200  0.17109200  0.65611800
   0.69721500  0.23532000  0.55431300
   0.79251400  0.49926300  0.39981900
   0.90812800  0.39557000  0.64834600
   0.14587800  0.24022400  0.20608500
   0.54199300  0.48257200  0.40104500
   0.45001100  0.68462000  0.60661600
   0.80659700  0.73644800  0.59741700
   0.99875600  0.74226300  0.33461700
   0.26139900  0.64015800  0.82418200
   0.90173500  0.97529800  0.65618700
   0.07524800  0.78581800  0.58743700
   0.46926700  0.19285500  0.69256700
 
 position of ions in cartesian coordinates  (Angst):
   3.24327844 10.50075191  7.34089110
   1.08400800  9.35687455  9.57246904
   4.56981945  9.26214167  9.72582963
   6.62454254 10.19823077  7.35116984
  10.47985972  7.08623305  9.54557372
   3.79900003  3.69709794  1.21759928
   3.48269112  4.70025801  7.37768727
   8.65117183 10.55879659  9.98324091
   3.83955356  3.01460878  4.87758794
   6.59527187  1.63203133  0.09863060
   7.17976747  5.63848492  7.21687676
   9.66383326  5.00940851 10.48488032
   1.54874327  6.53825291  1.25528081
   1.70944582  4.00409984  9.56282732
   5.71317856  4.94400028  9.58612725
   6.73566526  9.70533692  1.46251843
   8.94849961  2.49853377  1.50694809
   4.18544625 10.71583895  2.09466119
   3.13324621  1.16806265 10.08191469
   8.40212823 10.58418033  4.32968338
  10.56360125  4.72477800  2.90514879
   0.92947054  5.56631777  6.17133846
   6.95656109  5.05880479  1.57236711
  10.43287118  2.36629211  4.67540332
   8.60584602  7.15637037  1.61383839
   3.11504247  8.63693059  4.15931751
   3.10985991  5.41653099  3.93888596
   7.18786522  7.70490115  9.02232950
  10.32307648 10.01500568  1.13101814
   2.69313890  9.32311233  1.39218677
   4.65681088  6.85449704  1.34947384
   6.43764647  7.98921856  4.04788168
   1.26814004  0.31625493  4.34605163
   6.59250784  2.00350212  2.94922214
   4.96812078  0.08761765  5.08629395
   8.25669264  2.81332030  9.01857214
   0.30229441  1.45242324  9.91396736
   1.32729680  1.84728032  7.08410605
   7.52783035  2.54075004  5.98491746
   8.55677366  5.39054261  4.31684574
   9.80505802  4.27096929  7.00019176
   1.57504477  2.59369853  2.22509975
   5.85189842  5.21032988  4.33008287
   4.85876877  7.39184214  6.54963295
   8.70882781  7.95142906  6.45031135
  10.78356853  8.01421361  3.61285975
   2.82232500  6.91178593  8.89869305
   9.73603280 10.53029251  7.08485104
   0.81245266  8.48447695  6.34255729
   5.06667580  2.08225544  7.47764590
 


--------------------------------------------------------------------------------------------------------


 k-point  1 :  0.00000.00000.0000  plane waves:    4729

 maximum and minimum number of plane-waves per node :      2375     2354

 maximum number of plane-waves:      4729
 maximum index in each direction: 
   IXMAX=   10   IYMAX=   10   IZMAX=   10
   IXMIN=  -10   IYMIN=  -10   IZMIN=  -10

 WARNING: aliasing errors must be expected set NGX to  42 to avoid them
 WARNING: aliasing errors must be expected set NGY to  42 to avoid them
 WARNING: aliasing errors must be expected set NGZ to  42 to avoid them
 aliasing errors are usually negligible using standard VASP settings
 and one can safely disregard these warnings

 real space projection operators:
  total allocation   :       3062.62 KBytes
  max/ min on nodes  :       1532.07       1530.55


 parallel 3D FFT for wavefunctions:
    minimum data exchange during FFTs selected (reduces bandwidth)
 parallel 3D FFT for charge:
    minimum data exchange during FFTs selected (reduces bandwidth)


 total amount of memory used by VASP on root node    38188. kBytes
========================================================================

   base      :      30000. kBytes
   nonlr-proj:       2421. kBytes
   fftplans  :        919. kBytes
   grid      :       1229. kBytes
   one-center:        202. kBytes
   wavefun   :       3417. kBytes
 
 Broyden mixing: mesh for mixing (old mesh)
   NGX = 21   NGY = 21   NGZ = 21
  (NGX  = 48   NGY  = 48   NGZ  = 48)
  gives a total of   9261 points

 initial charge density was supplied:
 charge density of overlapping atoms calculated
 number of electron     600.0000000 magnetization 
 keeping initial charge density in first step


--------------------------------------------------------------------------------------------------------


 Maximum index for non-local projection operator  311
 Maximum index for augmentation-charges  232 (set IRDMAX)


--------------------------------------------------------------------------------------------------------


 First call to EWALD:  gamma=   0.164
 Maximum number of real-space cells 3x 3x 3
 Maximum number of reciprocal cells 3x 3x 3

    FEWALD:  cpu time    0.05: real time    0.05


----------------------------------------- Iteration    1(   1)  ---------------------------------------


    POTLOK:  cpu time    0.01: real time    0.02
    SETDIJ:  cpu time    0.01: real time    0.01
    EDDIAG:  cpu time    0.57: real time    0.57
  RMM-DIIS:  cpu time    0.43: real time    0.43
    ORTHCH:  cpu time    0.23: real time    0.23
       DOS:  cpu time    0.00: real time    0.00
    --------------------------------------------
      LOOP:  cpu time    1.25: real time    1.26

 eigenvalue-minimisations  :   316
 total energy-change (2. order) :-0.5145071E+05  (-0.1317715E+05)
 number of electron     600.0000000 magnetization 
 augmentation part      600.0000000 magnetization 

 Free energy of the ion-electron system (eV)
  ---------------------------------------------------
  alpha Z        PSCENC =      9011.06985828
  Ewald energy   TEWEN  =    -50064.50825885
  -1/2 Hartree   DENC   =     -8912.93658916
  -exchange  EXHF       =         0.00000000
  -V(xc)+E(xc)   XCENC  =      2392.06390177
  PAW double counting   =         0.00000000        0.00000000
  entropy T*S    EENTRO =        -0.02986275
  eigenvalues    EBANDS =     -3876.36492528
  atomic energy  EATOM  =         0.00000000
  ---------------------------------------------------
  free energy    TOTEN  =    -51450.70587600 eV

  energy without entropy =   -51450.67601325  energy(sigma->0) =   -51450.69592175


--------------------------------------------------------------------------------------------------------


 E-fermi :  -1.2278     XC(G=0): -10.6282     alpha+bet : -0.6466


 k-point   1 :       0.0000    0.0000    0.0000
  band No.  band energies     occupation 
      1     -12.1492      2.00000
      2     -10.9888      2.00000
      3     -10.7507      2.00000
      4     -10.7522      2.00000
      5     -10.5801      2.00000
      6     -10.4986      2.00000
      7     -10.4421      2.00000
      8      -9.8144      2.00000
      9      -9.6904      2.00000
     10      -9.5604      2.00000
     11      -9.5307      2.00000
     12      -9.5146      2.00000
     13      -9.3191      2.00000
     14      -9.3021      2.00000
     15      -9.2277      2.00000
     16      -9.0490      2.00000
     17      -9.0877      2.00000
     18      -9.1419      2.00000
     19      -8.9505      2.00000
     20      -8.7156      2.00000
     21      -8.4133      2.00000
     22      -8.4996      2.00000
     23      -8.5158      2.00000
     24      -8.2904      2.00000
     25      -8.3713      2.00000
     26      -8.3069      2.00000
     27      -8.3013      2.00000
     28      -8.1994      2.00000
     29      -8.2814      2.00000
     30      -8.4192      2.00000
     31      -8.3197      2.00000
     32      -8.1242      2.00000
     33      -8.1174      2.00000
     34      -8.3808      2.00000
     35      -8.5549      2.00000
     36      -8.5756      2.00000
     37      -8.6281      2.00000
     38      -8.4149      2.00000
     39      -8.3666      2.00000
     40      -8.7325      2.00000
     41      -8.2678      2.00000
     42      -8.4007      2.00000
     43      -8.2168      2.00000
     44      -8.2060      2.00000
     45      -8.5015      2.00000
     46      -8.4559      2.00000
     47      -8.3077      2.00000
     48      -8.2352      2.00000
     49      -8.1327      2.00000
     50      -8.4968      2.00000
     51      -8.6076      2.00000
     52      -8.5034      2.00000
     53      -8.4758      2.00000
     54      -8.4963      2.00000
     55      -8.0938      2.00000
     56      -8.1816      2.00000
     57      -8.5207      2.00000
     58      -8.1133      2.00000
     59      -8.4372      2.00000
     60      -8.1215      2.00000
     61      -8.3106      2.00000
     62      -8.2903      2.00000
     63      -8.5281      2.00000
     64      -8.1477      2.00000
     65      -8.4304      2.00000
     66      -8.3367      2.00000
     67      -8.4106      2.00000
     68      -8.3425      2.00000
     69      -8.2949      2.00000
     70      -8.4755      2.00000
     71      -8.2051      2.00000
     72      -8.0441      2.00000
     73      -8.3223      2.00000
     74      -8.4626      2.00000
     75      -8.3693      2.00000
     76      -8.5847      2.00000
     77      -8.3230      2.00000
     78      -8.2993      2.00000
     79      -8.6356      2.00000
     80      -8.5148      2.00000
     81      -8.5036      2.00000
     82      -8.3835      2.00000
     83      -8.5055      2.00000
     84      -8.6120      2.00000
     85      -8.2657      2.00000
     86      -8.2853      2.00000
     87      -8.3236      2.00000
     88      -8.3406      2.00000
     89      -8.5463      2.00000
     90      -8.5343      2.00000
     91      -8.3528      2.00000
     92      -8.5066      2.00000
     93      -8.6710      2.00000
     94      -8.4001      2.00000
     95      -8.4267      2.00000
     96      -8.3370      2.00000
     97      -8.2959      2.00000
     98      -8.3330      2.00000
     99      -8.4688      2.00000
    100      -8.1679      2.00000
    101      -8.1680      2.00000
    102      -8.1625      2.00000
    103      -8.2817      2.00000
    104      -8.1178      2.00000
    105      -8.3862      2.00000
    106      -8.1606      2.00000
    107      -7.9773      2.00000
    108      -8.0124      2.00000
    109      -7.9224      2.00000
    110      -8.0756      2.00000
    111      -8.0992      2.00000
    112      -8.0066      2.00000
    113      -8.0865      2.00000
    114      -7.6590      2.00000
    115      -7.9253      2.00000
    116      -7.9271      2.00000
    117      -7.7094      2.00000
    118      -7.9914      2.00000
    119      -7.7844      2.00000
    120      -8.0045      2.00000
    121      -7.8674      2.00000
    122      -7.7161      2.00000
    123      -7.9530      2.00000
    124      -7.6762      2.00000
    125      -7.7555      2.00000
    126      -7.7556      2.00000
    127      -7.6957      2.00000
    128      -7.6105      2.00000
    129      -7.7406      2.00000
    130      -7.6876      2.00000
    131      -7.5861      2.00000
    132      -7.6572      2.00000
    133      -7.3695      2.00000
    134      -7.3961      2.00000
    135      -7.4314      2.00000
    136      -7.6247      2.00000
    137      -7.1167      2.00000
    138      -7.3405      2.00000
    139      -7.4978      2.00000
    140      -7.3546      2.00000
    141      -7.4664      2.00000
    142      -7.2233      2.00000
    143      -7.2797      2.00000
    144      -7.2762      2.00000
    145      -7.3655      2.00000
    146      -7.3807      2.00000
    147      -7.0360      2.00000
    148      -7.1342      2.00000
    149      -7.1344      2.00000
    150      -7.0828      2.00000
    151      -7.0236      2.00000
    152      -6.9769      2.00000
    153      -7.0764      2.00000
    154      -7.0950      2.00000
    155      -6.7803      2.00000
    156      -7.0660      2.00000
    157      -6.7329      2.00000
    158      -7.0820      2.00000
    159      -6.8267      2.00000
    160      -6.8407      2.00000
    161      -6.9755      2.00000
    162      -6.6531      2.00000
    163      -6.7976      2.00000
    164      -6.8695      2.00000
    165      -6.7917      2.00000
    166      -6.6101      2.00000
    167      -6.7892      2.00000
    168      -6.5505      2.00000
    169      -6.5813      2.00000
    170      -6.8759      2.00000
    171      -6.6382      2.00000
    172      -6.2568      2.00000
    173      -6.5761      2.00000
    174      -6.3084      2.00000
    175      -6.4478      2.00000
    176      -6.5432      2.00000
    177      -6.4898      2.00000
    178      -6.6180      2.00000
    179      -6.2421      2.00000
    180      -6.5701      2.00000
    181      -6.4036      2.00000
    182      -6.3948      2.00000
    183      -6.3768      2.00000
    184      -6.1677      2.00000
    185      -6.2686      2.00000
    186      -6.0142      2.00000
    187      -5.9492      2.00000
    188      -6.2743      2.00000
    189      -6.0367      2.00000
    190      -5.9868      2.00000
    191      -5.9799      2.00000
    192      -5.7727      2.00000
    193      -5.9119      2.00000
    194      -5.9373      2.00000
    195      -5.7326      2.00000
    196      -5.8542      2.00000
    197      -5.9319      2.00000
    198      -5.7882      2.00000
    199      -5.6609      2.00000
    200      -5.9638      2.00000
    201      -5.3196      2.00000
    202      -5.4895      2.00000
    203      -5.6421      2.00000
    204      -5.2607      2.00000
    205      -5.4686      2.00000
    206      -5.3963      2.00000
    207      -5.4069      2.00000
    208      -5.4633      2.00000
    209      -5.5248      2.00000
    210      -5.6625      2.00000
    211      -5.0615      2.00000
    212      -5.3547      2.00000
    213      -5.3033      2.00000
    214      -5.1181      2.00000
    215      -5.4645      2.00000
    216      -5.2025      2.00000
    217      -4.9468      2.00000
    218      -5.1274      2.00000
    219      -4.8820      2.00000
    220      -4.9960      2.00000
    221      -4.7598      2.00000
    222      -4.7916      2.00000
    223      -4.9619      2.00000
    224      -4.9508      2.00000
    225      -4.9166      2.00000
    226      -4.5385      2.00000
    227      -4.5353      2.00000
    228      -4.8212      2.00000
    229      -4.7035      2.00000
    230      -4.3562      2.00000
    231      -4.5157      2.00000
    232      -4.8111      2.00000
    233      -4.6869      2.00000
    234      -4.4768      2.00000
    235      -4.3029      2.00000
    236      -4.2773      2.00000
    237      -4.0765      2.00000
    238      -4.2726      2.00000
    239      -4.2894      2.00000
    240      -4.0304      2.00000
    241      -3.8294      2.00000
    242      -4.1272      2.00000
    243      -4.2904      2.00000
    244      -3.8764      2.00000
    245      -3.8135      2.00000
    246      -3.7972      2.00000
    247      -3.7738      2.00000
    248      -3.5587      2.00000
    249      -3.9105      2.00000
    250      -3.5264      2.00000
    251      -3.6061      2.00000
    252      -3.5830      2.00000
    253      -3.7106      2.00000
    254      -3.7271      2.00000
    255      -3.7388      2.00000
    256      -3.7078      2.00000
    257      -3.5414      2.00000
    258      -3.3539      2.00000
    259      -3.3283      2.00000
    260      -3.1625      2.00000
    261      -3.1820      2.00000
    262      -3.0217      2.00000
    263      -3.1646      2.00000
    264      -3.2162      2.00000
    265      -2.7309      2.00000
    266      -3.2594      2.00000
    267      -2.9789      2.00000
    268      -2.7863      2.00000
    269      -3.0379      2.00000
    270      -2.5980      2.00000
    271      -2.6379      2.00000
    272      -2.8325      2.00000
    273      -2.7013      2.00000
    274      -2.6728      2.00000
    275      -2.4257      2.00000
    276      -2.6628      2.00000
    277      -2.7884      2.00000
    278      -2.3043      2.00000
    279      -2.4273      2.00000
    280      -2.5241      2.00000
    281      -2.5068      2.00000
    282      -2.2084      2.00000
    283      -2.3697      2.00000
    284      -2.1495      2.00000
    285      -1.7552      2.00000
    286      -2.0507      2.00000
    287      -1.9858      2.00000
    288      -2.1923      2.00000
    289      -2.1945      2.00000
    290      -1.9674      2.00000
    291      -1.8025      2.00000
    292      -2.1555      2.00000
    293      -1.6884      2.00000
    294      -1.2750      1.70923
    295      -1.5467      2.00006
    296      -1.5667      2.00002
    297      -1.4711      2.00310
    298      -1.5850      2.00001
    299      -1.3814      2.05200
    300      -1.2325      1.08063
    301      -0.9997     -0.00583
    302      -1.1161     -0.06678
    303      -0.9953     -0.00489
    304      -1.1255     -0.05469
    305      -0.6526      0.00000
    306      -0.5399      0.00000
    307      -1.2450      1.28714
    308      -0.3187      0.00000
    309      -0.4579      0.00000
    310      -0.2139      0.00000
    311      -0.0590      0.00000
    312      -0.3585      0.00000
    313      -0.3551      0.00000
    314       0.2104      0.00000
    315       0.1724      0.00000
    316       0.1897      0.00000


----------------------------------------- Iteration    1(   2)  ---------------------------------------


    EDDIAG:  cpu time    0.56: real time    0.56
  RMM-DIIS:  cpu time    0.43: real time    0.43
    ORTHCH:  cpu time    0.23: real time    0.23
       DOS:  cpu time    0.00: real time    0.00
    --------------------------------------------
      LOOP:  cpu time    1.23: real time    1.23

 eigenvalue-minimisations  :   316
 total energy-change (2. order) :-0.1309728E+04  (-0.2367455E+04)
 number of electron     600.0000000 magnetization 
 augmentation part      600.0000000 magnetization 

 Free energy of the ion-electron system (eV)
  ---------------------------------------------------
  alpha Z        PSCENC =      9011.06985828
  Ewald energy   TEWEN  =    -50064.50825885
  -1/2 Hartree   DENC   =     -8912.93658916
  -exchange  EXHF       =         0.00000000
  -V(xc)+E(xc)   XCENC  =      2392.06390177
  PAW double counting   =         0.00000000        0.00000000
  entropy T*S    EENTRO =         0.02406274
  eigenvalues    EBANDS =     -5186.14683426
  atomic energy  EATOM  =         0.00000000
  ---------------------------------------------------
  free energy    TOTEN  =    -52760.43385949 eV

  energy without entropy =   -52760.45792223  energy(sigma->0) =   -52760.44188041


--------------------------------------------------------------------------------------------------------


 E-fermi :  -4.2171     XC(G=0): -10.6282     alpha+bet : -0.6466


 k-point   1 :       0.0000    0.0000    0.0000
  band No.  band energies     occupation 
      1     -12.4442      2.00000
      2     -12.0528      2.00000
      3     -11.5698      2.00000
      4     -11.3580      2.00000
      5     -11.2767      2.00000
      6     -11.1976      2.00000
      7     -11.2107      2.00000
      8     -11.2534      2.00000
      9     -11.1770      2.00000
     10     -11.1010      2.00000
     11     -11.1026      2.00000
     12     -10.9662      2.00000
     13     -10.9742      2.00000
     14     -10.9036      2.00000
     15     -10.8295      2.00000
     16     -10.8204      2.00000
     17     -10.7419      2.00000
     18     -10.7435      2.00000
     19     -10.6944      2.00000
     20     -10.6370      2.00000
     21     -10.6399      2.00000
     22     -10.5991      2.00000
     23     -10.6449      2.00000
     24     -10.6277      2.00000
     25     -10.5935      2.00000
     26     -10.5740      2.00000
     27     -10.5538      2.00000
     28     -10.5342      2.00000
     29     -10.4810      2.00000
     30     -10.4613      2.00000
     31     -10.4565      2.00000
     32     -10.4121      2.00000
     33     -10.4011      2.00000
     34     -10.4183      2.00000
     35     -10.3850      2.00000
     36     -10.3654      2.00000
     37     -10.3522      2.00000
     38     -10.3304      2.00000
     39     -10.3430      2.00000
     40     -10.3546      2.00000
     41     -10.2852      2.00000
     42     -10.2803      2.00000
     43     -10.2544      2.00000
     44     -10.2319      2.00000
     45     -10.2341      2.00000
     46     -10.2702      2.00000
     47     -10.1956      2.00000
     48     -10.1905      2.00000
     49     -10.1742      2.00000
     50     -10.1396      2.00000
     51     -10.1147      2.00000
     52     -10.1457      2.00000
     53     -10.1141      2.00000
     54     -10.0650      2.00000
     55     -10.0759      2.00000
     56     -10.0482      2.00000
     57     -10.0764      2.00000
     58     -10.0385      2.00000
     59     -10.0448      2.00000
     60     -10.0010      2.00000
     61     -10.0505      2.00000
     62      -9.9829      2.00000
     63      -9.9755      2.00000
     64     -10.0111      2.00000
     65      -9.9298      2.00000
     66     -10.0059      2.00000
     67      -9.9023      2.00000
     68      -9.9359      2.00000
     69      -9.8927      2.00000
     70      -9.8977      2.00000
     71      -9.8736      2.00000
     72      -9.8895      2.00000
     73      -9.8617      2.00000
     74      -9.7863      2.00000
     75      -9.8783      2.00000
     76      -9.7858      2.00000
     77      -9.8886      2.00000
     78      -9.7956      2.00000
     79      -9.7653      2.00000
     80      -9.8211      2.00000
     81      -9.7658      2.00000
     82      -9.7758      2.00000
     83      -9.7014      2.00000
     84      -9.6982      2.00000
     85      -9.7208      2.00000
     86      -9.7796      2.00000
     87      -9.7546      2.00000
     88      -9.7029      2.00000
     89      -9.6875      2.00000
     90      -9.6901      2.00000
     91      -9.6481      2.00000
     92      -9.6076      2.00000
     93      -9.5890      2.00000
     94      -9.6034      2.00000
     95      -9.6309      2.00000
     96      -9.5319      2.00000
     97      -9.5990      2.00000
     98      -9.6415      2.00000
     99      -9.5492      2.00000
    100      -9.5532      2.00000
    101      -9.4713      2.00000
    102      -9.5683      2.00000
    103      -9.5491      2.00000
    104      -9.5391      2.00000
    105      -9.5130      2.00000
    106      -9.4453      2.00000
    107      -9.5130      2.00000
    108      -9.4329      2.00000
    109      -9.4464      2.00000
    110      -9.4850      2.00000
    111      -9.3900      2.00000
    112      -9.4842      2.00000
    113      -9.3958      2.00000
    114      -9.4361      2.00000
    115      -9.3524      2.00000
    116      -9.3795      2.00000
    117      -9.3586      2.00000
    118      -9.3591      2.00000
    119      -9.3455      2.00000
    120      -9.3134      2.00000
    121      -9.3183      2.00000
    122      -9.2659      2.00000
    123      -9.1902      2.00000
    124      -9.1145      2.00000
    125      -9.3536      2.00000
    126      -9.3522      2.00000
    127      -9.2801      2.00000
    128      -9.2883      2.00000
    129      -9.1652      2.00000
    130      -9.2229      2.00000
    131      -9.2055      2.00000
    132      -9.2453      2.00000
    133      -9.1379      2.00000
    134      -9.2405      2.00000
    135      -9.2173      2.00000
    136      -9.1930      2.00000
    137      -9.2139      2.00000
    138      -9.0908      2.00000
    139      -9.1815      2.00000
    140      -9.1059      2.00000
    141      -9.0540      2.00000
    142      -9.1975      2.00000
    143      -9.1195      2.00000
    144      -9.1910      2.00000
    145      -9.1269      2.00000
    146      -8.9835      2.00000
    147      -8.9758      2.00000
    148      -8.9692      2.00000
    149      -9.1212      2.00000
    150      -9.0648      2.00000
    151      -8.9826      2.00000
    152      -9.0532      2.00000
    153      -8.9554      2.00000
    154      -8.9374      2.00000
    155      -8.9723      2.00000
    156      -8.9035      2.00000
    157      -8.8616      2.00000
    158      -8.8903      2.00000
    159      -8.8942      2.00000
    160      -8.9608      2.00000
    161      -8.8622      2.00000
    162      -8.8825      2.00000
    163      -9.0141      2.00000
    164      -8.8459      2.00000
    165      -8.8215      2.00000
    166      -8.8262      2.00000
    167      -8.5970      2.00000
    168      -8.6954      2.00000
    169      -8.8465      2.00000
    170      -8.9699      2.00000
    171      -8.6198      2.00000
    172      -8.6566      2.00000
    173      -8.6304      2.00000
    174      -8.7564      2.00000
    175      -8.8308      2.00000
    176      -8.5837      2.00000
    177      -8.6713      2.00000
    178      -8.7470      2.00000
    179      -8.5859      2.00000
    180      -8.5688      2.00000
    181      -8.6629      2.00000
    182      -8.6482      2.00000
    183      -8.4386      2.00000
    184      -8.7545      2.00000
    185      -8.4759      2.00000
    186      -8.5829      2.00000
    187      -8.6026      2.00000
    188      -8.1887      2.00000
    189      -8.5965      2.00000
    190      -8.5151      2.00000
    191      -8.2627      2.00000
    192      -8.4042      2.00000
    193      -8.2812      2.00000
    194      -8.2635      2.00000
    195      -8.3895      2.00000
    196      -8.3762      2.00000
    197      -8.3377      2.00000
    198      -8.2638      2.00000
    199      -8.3698      2.00000
    200      -8.3260      2.00000
    201      -8.2789      2.00000
    202      -8.2090      2.00000
    203      -8.0317      2.00000
    204      -8.4186      2.00000
    205      -8.0908      2.00000
    206      -8.2023      2.00000
    207      -8.2036      2.00000
    208      -8.1548      2.00000
    209      -8.0890      2.00000
    210      -8.1681      2.00000
    211      -8.1106      2.00000
    212      -8.1503      2.00000
    213      -8.1403      2.00000
    214      -7.7379      2.00000
    215      -8.0264      2.00000
    216      -7.8683      2.00000
    217      -7.9816      2.00000
    218      -8.0333      2.00000
    219      -7.9718      2.00000
    220      -7.4519      2.00000
    221      -7.7000      2.00000
    222      -7.6491      2.00000
    223      -7.4819      2.00000
    224      -7.7274      2.00000
    225      -7.5401      2.00000
    226      -7.7577      2.00000
    227      -7.5853      2.00000
    228      -7.8590      2.00000
    229      -7.4214      2.00000
    230      -7.3683      2.00000
    231      -7.5404      2.00000
    232      -7.6480      2.00000
    233      -7.4492      2.00000
    234      -7.4417      2.00000
    235      -7.1794      2.00000
    236      -7.5306      2.00000
    237      -7.2052      2.00000
    238      -7.3149      2.00000
    239      -7.2634      2.00000
    240      -7.2239      2.00000
    241      -7.2323      2.00000
    242      -6.7843      2.00000
    243      -7.0746      2.00000
    244      -6.8892      2.00000
    245      -7.0742      2.00000
    246      -6.3431      2.00000
    247      -7.4273      2.00000
    248      -6.8077      2.00000
    249      -6.7335      2.00000
    250      -6.8077      2.00000
    251      -6.7197      2.00000
    252      -6.7303      2.00000
    253      -6.8334      2.00000
    254      -6.6485      2.00000
    255      -7.0494      2.00000
    256      -6.7441      2.00000
    257      -6.4475      2.00000
    258      -6.9662      2.00000
    259      -6.4609      2.00000
    260      -6.6669      2.00000
    261      -6.5754      2.00000
    262      -6.4230      2.00000
    263      -6.9770      2.00000
    264      -6.1295      2.00000
    265      -6.0504      2.00000
    266      -6.5094      2.00000
    267      -6.2822      2.00000
    268      -5.9635      2.00000
    269      -6.1781      2.00000
    270      -5.9101      2.00000
    271      -6.0975      2.00000
    272      -6.1242      2.00000
    273      -6.0930      2.00000
    274      -5.8047      2.00000
    275      -6.0277      2.00000
    276      -5.8652      2.00000
    277      -6.1686      2.00000
    278      -5.8428      2.00000
    279      -5.8825      2.00000
    280      -5.4347      2.00000
    281      -5.2898      2.00000
    282      -5.7386      2.00000
    283      -5.2666      2.00000
    284      -5.1189      2.00000
    285      -4.9556      2.00000
    286      -5.3784      2.00000
    287      -4.9421      2.00000
    288      -5.3224      2.00000
    289      -5.2155      2.00000
    290      -5.3674      2.00000
    291      -5.1814      2.00000
    292      -4.3092      2.02991
    293      -5.1023      2.00000
    294      -5.1547      2.00000
    295      -4.7670      2.00000
    296      -4.4202      2.01444
    297      -4.2736      1.80772
    298      -4.5460      2.00003
    299      -4.5593      2.00001
    300      -4.3246      2.06260
    301      -3.5042      0.00000
    302      -4.0620     -0.05070
    303      -4.1560      0.15024
    304      -3.7963      0.00000
    305      -3.8564      0.00000
    306      -3.7253      0.00000
    307      -3.7453      0.00000
    308      -4.0136     -0.01425
    309      -3.4296      0.00000
    310      -3.6830      0.00000
    311      -3.7629      0.00000
    312      -3.3272      0.00000
    313      -3.1324      0.00000
    314      -2.9870      0.00000
    315      -3.1892      0.00000
    316      -2.9175      0.00000


----------------------------------------- Iteration    1(   3)  ---------------------------------------


    EDDIAG:  cpu time    0.56: real time    0.56
  RMM-DIIS:  cpu time    0.43: real time    0.43
    ORTHCH:  cpu time    0.23: real time    0.23
       DOS:  cpu time    0.00: real time    0.00
    --------------------------------------------
      LOOP:  cpu time    1.23: real time    1.23

 eigenvalue-minimisations  :   316
 total energy-change (2. order) :-0.2139015E+03  (-0.4125376E+03)
 number of electron     600.0000000 magnetization 
 augmentation part      600.0000000 magnetization 

 Free energy of the ion-electron system (eV)
  ---------------------------------------------------
  alpha Z        PSCENC =      9011.06985828
  Ewald energy   TEWEN  =    -50064.50825885
  -1/2 Hartree   DENC   =     -8912.93658916
  -exchange  EXHF       =         0.00000000
  -V(xc)+E(xc)   XCENC  =      2392.06390177
  PAW double counting   =         0.00000000        0.00000000
  entropy T*S    EENTRO =        -0.01986912
  eigenvalues    EBANDS =     -5400.00442048
  atomic energy  EATOM  =         0.00000000
  ---------------------------------------------------
  free energy    TOTEN  =    -52974.33537757 eV

  energy without entropy =   -52974.31550845  energy(sigma->0) =   -52974.32875453


--------------------------------------------------------------------------------------------------------


 E-fermi :  -1.7423     XC(G=0): -10.6282     alpha+bet : -0.6466


 k-point   1 :       0.0000    0.0000    0.0000
  band No.  band energies     occupation 
      1     -13.0227      2.00000
      2     -12.5050      2.00000
      3     -12.0724      2.00000
      4     -12.0410      2.00000
      5     -11.8621      2.00000
      6     -11.8420      2.00000
      7     -11.7533      2.00000
      8     -11.4888      2.00000
      9     -11.4694      2.00000
     10     -11.4366      2.00000
     11     -11.3735      2.00000
     12     -11.3192      2.00000
     13     -11.2970      2.00000
     14     -11.2396      2.00000
     15     -11.2000      2.00000
     16     -11.1678      2.00000
     17     -11.1444      2.00000
     18     -11.1527      2.00000
     19     -11.1275      2.00000
     20     -11.0901      2.00000
     21     -11.0817      2.00000
     22     -11.0686      2.00000
     23     -11.0471      2.00000
     24     -11.0139      2.00000
     25     -10.9967      2.00000
     26     -10.9722      2.00000
     27     -10.9513      2.00000
     28     -10.9423      2.00000
     29     -10.9250      2.00000
     30     -10.9078      2.00000
     31     -10.8802      2.00000
     32     -10.8595      2.00000
     33     -10.8479      2.00000
     34     -10.8449      2.00000
     35     -10.8368      2.00000
     36     -10.8203      2.00000
     37     -10.7923      2.00000
     38     -10.7721      2.00000
     39     -10.7654      2.00000
     40     -10.7498      2.00000
     41     -10.7325      2.00000
     42     -10.7130      2.00000
     43     -10.7008      2.00000
     44     -10.6993      2.00000
     45     -10.6836      2.00000
     46     -10.6586      2.00000
     47     -10.6453      2.00000
     48     -10.6487      2.00000
     49     -10.6239      2.00000
     50     -10.6092      2.00000
     51     -10.6033      2.00000
     52     -10.6025      2.00000
     53     -10.5789      2.00000
     54     -10.5652      2.00000
     55     -10.5596      2.00000
     56     -10.5387      2.00000
     57     -10.5433      2.00000
     58     -10.5074      2.00000
     59     -10.5142      2.00000
     60     -10.5088      2.00000
     61     -10.4806      2.00000
     62     -10.4752      2.00000
     63     -10.4658      2.00000
     64     -10.4535      2.00000
     65     -10.4320      2.00000
     66     -10.4299      2.00000
     67     -10.4289      2.00000
     68     -10.4093      2.00000
     69     -10.3866      2.00000
     70     -10.3665      2.00000
     71     -10.3529      2.00000
     72     -10.3353      2.00000
     73     -10.3592      2.00000
     74     -10.3405      2.00000
     75     -10.3333      2.00000
     76     -10.3223      2.00000
     77     -10.2924      2.00000
     78     -10.2736      2.00000
     79     -10.2644      2.00000
     80     -10.2502      2.00000
     81     -10.2511      2.00000
     82     -10.2324      2.00000
     83     -10.2030      2.00000
     84     -10.2004      2.00000
     85     -10.2019      2.00000
     86     -10.1871      2.00000
     87     -10.1685      2.00000
     88     -10.1627      2.00000
     89     -10.1645      2.00000
     90     -10.1232      2.00000
     91     -10.1308      2.00000
     92     -10.1172      2.00000
     93     -10.1068      2.00000
     94     -10.0816      2.00000
     95     -10.0860      2.00000
     96     -10.0718      2.00000
     97     -10.0594      2.00000
     98     -10.0402      2.00000
     99     -10.0380      2.00000
    100     -10.0294      2.00000
    101     -10.0290      2.00000
    102     -10.0153      2.00000
    103      -9.9938      2.00000
    104      -9.9798      2.00000
    105      -9.9883      2.00000
    106      -9.9490      2.00000
    107      -9.9411      2.00000
    108      -9.9250      2.00000
    109      -9.9483      2.00000
    110      -9.9177      2.00000
    111      -9.8971      2.00000
    112      -9.8845      2.00000
    113      -9.8701      2.00000
    114      -9.8426      2.00000
    115      -9.8566      2.00000
    116      -9.8504      2.00000
    117      -9.8309      2.00000
    118      -9.8245      2.00000
    119      -9.8215      2.00000
    120      -9.8015      2.00000
    121      -9.7989      2.00000
    122      -9.7711      2.00000
    123      -9.7639      2.00000
    124      -9.7675      2.00000
    125      -9.7573      2.00000
    126      -9.7486      2.00000
    127      -9.7333      2.00000
    128      -9.7322      2.00000
    129      -9.7022      2.00000
    130      -9.6872      2.00000
    131      -9.6880      2.00000
    132      -9.6973      2.00000
    133      -9.6676      2.00000
    134      -9.6553      2.00000
    135      -9.6510      2.00000
    136      -9.6545      2.00000
    137      -9.6352      2.00000
    138      -9.6190      2.00000
    139      -9.5948      2.00000
    140      -9.5857      2.00000
    141      -9.5941      2.00000
    142      -9.5773      2.00000
    143      -9.5709      2.00000
    144      -9.5794      2.00000
    145      -9.5402      2.00000
    146      -9.5249      2.00000
    147      -9.5015      2.00000
    148      -9.4698      2.00000
    149      -9.5121      2.00000
    150      -9.4964      2.00000
    151      -9.5059      2.00000
    152      -9.4641      2.00000
    153      -9.4659      2.00000
    154      -9.4483      2.00000
    155      -9.4114      2.00000
    156      -9.4152      2.00000
    157      -9.4076      2.00000
    158      -9.4078      2.00000
    159      -9.3913      2.00000
    160      -9.3832      2.00000
    161      -9.3632      2.00000
    162      -9.3709      2.00000
    163      -9.3651      2.00000
    164      -9.3456      2.00000
    165      -9.3223      2.00000
    166      -9.3122      2.00000
    167      -9.3100      2.00000
    168      -9.3322      2.00000
    169      -9.3220      2.00000
    170      -9.2509      2.00000
    171      -9.2602      2.00000
    172      -9.2469      2.00000
    173      -9.2603      2.00000
    174      -9.2306      2.00000
    175      -9.2458      2.00000
    176      -9.2608      2.00000
    177      -9.2166      2.00000
    178      -9.2205      2.00000
    179      -9.1982      2.00000
    180      -9.1756      2.00000
    181      -9.2027      2.00000
    182      -9.1645      2.00000
    183      -9.1836      2.00000
    184      -9.1642      2.00000
    185      -9.1669      2.00000
    186      -9.1416      2.00000
    187      -9.1251      2.00000
    188      -9.1024      2.00000
    189      -9.1529      2.00000
    190      -9.0835      2.00000
    191      -9.1081      2.00000
    192      -9.0796      2.00000
    193      -9.0781      2.00000
    194      -9.0891      2.00000
    195      -9.0283      2.00000
    196      -9.0293      2.00000
    197      -9.0039      2.00000
    198      -9.0023      2.00000
    199      -9.0443      2.00000
    200      -9.0133      2.00000
    201      -9.0069      2.00000
    202      -8.9807      2.00000
    203      -9.0101      2.00000
    204      -9.0102      2.00000
    205      -8.9860      2.00000
    206      -8.9289      2.00000
    207      -8.9070      2.00000
    208      -8.8540      2.00000
    209      -8.9974      2.00000
    210      -8.9650      2.00000
    211      -8.8886      2.00000
    212      -8.8568      2.00000
    213      -8.8130      2.00000
    214      -8.8310      2.00000
    215      -8.8032      2.00000
    216      -8.7423      2.00000
    217      -8.8176      2.00000
    218      -8.7485      2.00000
    219      -8.7843      2.00000
    220      -8.7735      2.00000
    221      -8.6862      2.00000
    222      -8.6530      2.00000
    223      -8.6391      2.00000
    224      -8.6753      2.00000
    225      -8.6156      2.00000
    226      -8.6417      2.00000
    227      -8.6192      2.00000
    228      -8.6958      2.00000
    229      -8.4831      2.00000
    230      -8.5560      2.00000
    231      -8.5952      2.00000
    232      -8.5597      2.00000
    233      -8.4484      2.00000
    234      -8.4793      2.00000
    235      -8.3631      2.00000
    236      -8.4367      2.00000
    237      -8.3718      2.00000
    238      -8.5440      2.00000
    239      -8.3171      2.00000
    240      -8.2158      2.00000
    241      -7.9455      2.00000
    242      -8.0482      2.00000
    243      -8.1075      2.00000
    244      -8.1036      2.00000
    245      -8.1170      2.00000
    246      -8.0536      2.00000
    247      -7.8961      2.00000
    248      -7.6648      2.00000
    249      -7.6977      2.00000
    250      -7.7089      2.00000
    251      -7.5467      2.00000
    252      -7.6598      2.00000
    253      -7.3884      2.00000
    254      -7.6789      2.00000
    255      -7.3431      2.00000
    256      -7.5814      2.00000
    257      -7.2504      2.00000
    258      -7.3128      2.00000
    259      -6.9311      2.00000
    260      -7.0640      2.00000
    261      -7.1357      2.00000
    262      -6.7626      2.00000
    263      -6.7039      2.00000
    264      -6.6199      2.00000
    265      -6.3249      2.00000
    266      -6.5394      2.00000
    267      -6.5171      2.00000
    268      -6.2225      2.00000
    269      -6.1550      2.00000
    270      -6.0027      2.00000
    271      -5.7539      2.00000
    272      -5.3535      2.00000
    273      -5.6291      2.00000
    274      -5.4384      2.00000
    275      -5.1787      2.00000
    276      -5.3273      2.00000
    277      -4.6598      2.00000
    278      -4.7355      2.00000
    279      -4.7471      2.00000
    280      -4.1868      2.00000
    281      -4.1411      2.00000
    282      -4.0658      2.00000
    283      -3.8701      2.00000
    284      -3.7836      2.00000
    285      -3.4905      2.00000
    286      -3.8193      2.00000
    287      -3.3095      2.00000
    288      -3.2410      2.00000
    289      -3.2434      2.00000
    290      -3.0609      2.00000
    291      -3.1202      2.00000
    292      -2.9730      2.00000
    293      -2.6433      2.00000
    294      -2.7090      2.00000
    295      -2.7617      2.00000
    296      -2.4159      2.00000
    297      -2.0657      2.00005
    298      -2.4077      2.00000
    299      -2.3758      2.00000
    300      -1.6536     -0.01811
    301      -1.7761      1.53707
    302      -1.7150      0.55583
    303      -1.5328     -0.01161
    304      -1.6342     -0.06323
    305      -1.2854      0.00000
    306      -0.9074      0.00000
    307      -1.1196      0.00000
    308      -0.8994      0.00000
    309      -0.6619      0.00000
    310      -0.2786      0.00000
    311      -0.0612      0.00000
    312      -0.1390      0.00000
    313       0.1514      0.00000
    314       0.5163      0.00000
    315       1.6701      0.00000
    316       1.7163      0.00000


----------------------------------------- Iteration    1(   4)  ---------------------------------------


    EDDIAG:  cpu time    0.56: real time    0.56
  RMM-DIIS:  cpu time    0.43: real time    0.43
    ORTHCH:  cpu time    0.23: real time    0.23
       DOS:  cpu time    0.01: real time    0.00
    --------------------------------------------
      LOOP:  cpu time    1.24: real time    1.23

 eigenvalue-minimisations  :   316
 total energy-change (2. order) :-0.1401816E+03  (-0.1576942E+03)
 number of electron     600.0000000 magnetization 
 augmentation part      600.0000000 magnetization 

 Free energy of the ion-electron system (eV)
  ---------------------------------------------------
  alpha Z        PSCENC =      9011.06985828
  Ewald energy   TEWEN  =    -50064.50825885
  -1/2 Hartree   DENC   =     -8912.93658916
  -exchange  EXHF       =         0.00000000
  -V(xc)+E(xc)   XCENC  =      2392.06390177
  PAW double counting   =         0.00000000        0.00000000
  entropy T*S    EENTRO =        -0.03400421
  eigenvalues    EBANDS =     -5540.17190535
  atomic energy  EATOM  =         0.00000000
  ---------------------------------------------------
  free energy    TOTEN  =    -53114.51699753 eV

  energy without entropy =   -53114.48299332  energy(sigma->0) =   -53114.50566279


--------------------------------------------------------------------------------------------------------


 E-fermi :  -2.1526     XC(G=0): -10.6282     alpha+bet : -0.6466


 k-point   1 :       0.0000    0.0000    0.0000
  band No.  band energies     occupation 
      1     -13.1390      2.00000
      2     -12.5426      2.00000
      3     -12.1773      2.00000
      4     -12.1593      2.00000
      5     -11.9699      2.00000
      6     -11.9354      2.00000
      7     -11.8594      2.00000
      8     -11.5598      2.00000
      9     -11.5409      2.00000
     10     -11.5129      2.00000
     11     -11.4567      2.00000
     12     -11.3861      2.00000
     13     -11.3731      2.00000
     14     -11.3126      2.00000
     15     -11.2938      2.00000
     16     -11.2698      2.00000
     17     -11.2376      2.00000
     18     -11.2272      2.00000
     19     -11.2080      2.00000
     20     -11.2019      2.00000
     21     -11.1777      2.00000
     22     -11.1596      2.00000
     23     -11.1457      2.00000
     24     -11.1176      2.00000
     25     -11.0880      2.00000
     26     -11.0716      2.00000
     27     -11.0443      2.00000
     28     -11.0208      2.00000
     29     -11.0123      2.00000
     30     -10.9932      2.00000
     31     -10.9740      2.00000
     32     -10.9646      2.00000
     33     -10.9460      2.00000
     34     -10.9369      2.00000
     35     -10.9224      2.00000
     36     -10.9132      2.00000
     37     -10.8934      2.00000
     38     -10.8582      2.00000
     39     -10.8567      2.00000
     40     -10.8330      2.00000
     41     -10.8164      2.00000
     42     -10.8213      2.00000
     43     -10.8001      2.00000
     44     -10.7832      2.00000
     45     -10.7775      2.00000
     46     -10.7536      2.00000
     47     -10.7464      2.00000
     48     -10.7355      2.00000
     49     -10.7258      2.00000
     50     -10.7101      2.00000
     51     -10.6874      2.00000
     52     -10.6782      2.00000
     53     -10.6722      2.00000
     54     -10.6745      2.00000
     55     -10.6609      2.00000
     56     -10.6548      2.00000
     57     -10.6295      2.00000
     58     -10.6232      2.00000
     59     -10.6113      2.00000
     60     -10.5920      2.00000
     61     -10.5961      2.00000
     62     -10.5835      2.00000
     63     -10.5701      2.00000
     64     -10.5543      2.00000
     65     -10.5354      2.00000
     66     -10.5280      2.00000
     67     -10.5152      2.00000
     68     -10.5045      2.00000
     69     -10.5082      2.00000
     70     -10.4854      2.00000
     71     -10.4703      2.00000
     72     -10.4641      2.00000
     73     -10.4570      2.00000
     74     -10.4406      2.00000
     75     -10.4108      2.00000
     76     -10.4031      2.00000
     77     -10.3921      2.00000
     78     -10.3828      2.00000
     79     -10.3730      2.00000
     80     -10.3643      2.00000
     81     -10.3510      2.00000
     82     -10.3466      2.00000
     83     -10.3332      2.00000
     84     -10.3070      2.00000
     85     -10.3156      2.00000
     86     -10.2857      2.00000
     87     -10.2843      2.00000
     88     -10.2670      2.00000
     89     -10.2688      2.00000
     90     -10.2580      2.00000
     91     -10.2449      2.00000
     92     -10.2237      2.00000
     93     -10.2228      2.00000
     94     -10.2047      2.00000
     95     -10.2073      2.00000
     96     -10.1775      2.00000
     97     -10.1722      2.00000
     98     -10.1694      2.00000
     99     -10.1536      2.00000
    100     -10.1527      2.00000
    101     -10.1241      2.00000
    102     -10.1176      2.00000
    103     -10.1179      2.00000
    104     -10.0879      2.00000
    105     -10.0929      2.00000
    106     -10.0672      2.00000
    107     -10.0627      2.00000
    108     -10.0441      2.00000
    109     -10.0390      2.00000
    110     -10.0344      2.00000
    111     -10.0176      2.00000
    112     -10.0098      2.00000
    113      -9.9857      2.00000
    114      -9.9951      2.00000
    115      -9.9964      2.00000
    116      -9.9692      2.00000
    117      -9.9632      2.00000
    118      -9.9514      2.00000
    119      -9.9394      2.00000
    120      -9.9233      2.00000
    121      -9.9165      2.00000
    122      -9.9074      2.00000
    123      -9.8925      2.00000
    124      -9.8696      2.00000
    125      -9.8901      2.00000
    126      -9.8719      2.00000
    127      -9.8688      2.00000
    128      -9.8513      2.00000
    129      -9.8511      2.00000
    130      -9.8411      2.00000
    131      -9.8268      2.00000
    132      -9.8177      2.00000
    133      -9.7935      2.00000
    134      -9.7861      2.00000
    135      -9.7662      2.00000
    136      -9.7598      2.00000
    137      -9.7598      2.00000
    138      -9.7507      2.00000
    139      -9.7523      2.00000
    140      -9.7355      2.00000
    141      -9.7256      2.00000
    142      -9.7271      2.00000
    143      -9.6933      2.00000
    144      -9.6843      2.00000
    145      -9.6842      2.00000
    146      -9.6826      2.00000
    147      -9.6756      2.00000
    148      -9.6359      2.00000
    149      -9.6454      2.00000
    150      -9.6350      2.00000
    151      -9.6248      2.00000
    152      -9.6122      2.00000
    153      -9.5898      2.00000
    154      -9.5778      2.00000
    155      -9.5546      2.00000
    156      -9.5491      2.00000
    157      -9.5419      2.00000
    158      -9.5607      2.00000
    159      -9.5224      2.00000
    160      -9.5194      2.00000
    161      -9.5047      2.00000
    162      -9.4915      2.00000
    163      -9.4882      2.00000
    164      -9.4849      2.00000
    165      -9.4688      2.00000
    166      -9.4593      2.00000
    167      -9.4498      2.00000
    168      -9.4466      2.00000
    169      -9.4410      2.00000
    170      -9.4179      2.00000
    171      -9.4158      2.00000
    172      -9.3914      2.00000
    173      -9.3954      2.00000
    174      -9.3835      2.00000
    175      -9.3588      2.00000
    176      -9.3579      2.00000
    177      -9.3544      2.00000
    178      -9.3462      2.00000
    179      -9.3372      2.00000
    180      -9.3333      2.00000
    181      -9.3099      2.00000
    182      -9.2912      2.00000
    183      -9.2963      2.00000
    184      -9.2931      2.00000
    185      -9.2757      2.00000
    186      -9.2821      2.00000
    187      -9.2669      2.00000
    188      -9.2609      2.00000
    189      -9.2634      2.00000
    190      -9.2351      2.00000
    191      -9.2438      2.00000
    192      -9.2237      2.00000
    193      -9.2098      2.00000
    194      -9.1968      2.00000
    195      -9.2061      2.00000
    196      -9.2036      2.00000
    197      -9.1634      2.00000
    198      -9.1866      2.00000
    199      -9.1664      2.00000
    200      -9.1340      2.00000
    201      -9.1470      2.00000
    202      -9.1449      2.00000
    203      -9.1250      2.00000
    204      -9.1224      2.00000
    205      -9.0964      2.00000
    206      -9.0782      2.00000
    207      -9.0919      2.00000
    208      -9.0780      2.00000
    209      -9.0595      2.00000
    210      -9.0846      2.00000
    211      -9.0364      2.00000
    212      -9.0357      2.00000
    213      -9.0147      2.00000
    214      -9.0182      2.00000
    215      -9.0015      2.00000
    216      -8.9970      2.00000
    217      -8.9626      2.00000
    218      -8.9805      2.00000
    219      -8.9542      2.00000
    220      -8.9589      2.00000
    221      -8.9132      2.00000
    222      -8.9536      2.00000
    223      -8.9218      2.00000
    224      -8.9161      2.00000
    225      -8.9044      2.00000
    226      -8.8831      2.00000
    227      -8.8954      2.00000
    228      -8.8644      2.00000
    229      -8.8531      2.00000
    230      -8.8609      2.00000
    231      -8.8554      2.00000
    232      -8.8045      2.00000
    233      -8.7608      2.00000
    234      -8.7746      2.00000
    235      -8.7735      2.00000
    236      -8.7738      2.00000
    237      -8.7034      2.00000
    238      -8.6629      2.00000
    239      -8.6950      2.00000
    240      -8.6302      2.00000
    241      -8.6313      2.00000
    242      -8.6052      2.00000
    243      -8.5954      2.00000
    244      -8.4502      2.00000
    245      -8.5425      2.00000
    246      -8.4434      2.00000
    247      -8.4774      2.00000
    248      -8.3937      2.00000
    249      -8.3528      2.00000
    250      -8.3055      2.00000
    251      -8.3825      2.00000
    252      -8.2828      2.00000
    253      -8.3174      2.00000
    254      -8.2288      2.00000
    255      -8.2165      2.00000
    256      -8.1967      2.00000
    257      -8.0478      2.00000
    258      -8.0322      2.00000
    259      -7.9584      2.00000
    260      -7.9454      2.00000
    261      -7.8401      2.00000
    262      -7.8262      2.00000
    263      -7.5597      2.00000
    264      -7.3654      2.00000
    265      -7.4720      2.00000
    266      -7.2868      2.00000
    267      -7.1429      2.00000
    268      -6.8529      2.00000
    269      -7.0078      2.00000
    270      -6.6736      2.00000
    271      -6.9035      2.00000
    272      -6.6347      2.00000
    273      -6.5132      2.00000
    274      -6.4229      2.00000
    275      -6.3925      2.00000
    276      -6.1819      2.00000
    277      -5.6140      2.00000
    278      -5.3000      2.00000
    279      -5.0303      2.00000
    280      -5.0258      2.00000
    281      -4.7708      2.00000
    282      -4.6079      2.00000
    283      -4.5367      2.00000
    284      -4.1533      2.00000
    285      -4.0476      2.00000
    286      -3.8949      2.00000
    287      -3.8211      2.00000
    288      -3.7074      2.00000
    289      -3.5372      2.00000
    290      -3.3677      2.00000
    291      -3.2991      2.00000
    292      -3.1956      2.00000
    293      -3.1247      2.00000
    294      -3.0854      2.00000
    295      -2.9406      2.00000
    296      -2.7805      2.00000
    297      -2.6744      2.00000
    298      -2.5858      2.00000
    299      -2.4916      2.00002
    300      -2.1313      0.64770
    301      -2.1786      1.42390
    302      -1.9164     -0.00420
    303      -2.0402     -0.06731
    304      -1.8205     -0.00003
    305      -1.8364     -0.00007
    306      -1.6214      0.00000
    307      -1.4751      0.00000
    308      -1.2485      0.00000
    309      -1.1729      0.00000
    310      -1.0357      0.00000
    311      -0.7033      0.00000
    312      -0.2978      0.00000
    313      -0.3635      0.00000
    314      -0.0449      0.00000
    315       0.7560      0.00000
    316       1.2900      0.00000


----------------------------------------- Iteration    1(   5)  ---------------------------------------


    EDDIAG:  cpu time    0.56: real time    0.56
  RMM-DIIS:  cpu time    0.43: real time    0.43
    ORTHCH:  cpu time    0.23: real time    0.23
       DOS:  cpu time    0.00: real time    0.00
    --------------------------------------------
      LOOP:  cpu time    1.23: real time    1.24

 eigenvalue-minimisations  :   316
 total energy-change (2. order) :-0.6438597E+02  (-0.6714193E+02)
 number of electron     600.0000000 magnetization 
 augmentation part      600.0000000 magnetization 

 Free energy of the ion-electron system (eV)
  ---------------------------------------------------
  alpha Z        PSCENC =      9011.06985828
  Ewald energy   TEWEN  =    -50064.50825885
  -1/2 Hartree   DENC   =     -8912.93658916
  -exchange  EXHF       =         0.00000000
  -V(xc)+E(xc)   XCENC  =      2392.06390177
  PAW double counting   =         0.00000000        0.00000000
  entropy T*S    EENTRO =         0.02426808
  eigenvalues    EBANDS =     -5604.61614731
  atomic energy  EATOM  =         0.00000000
  ---------------------------------------------------
  free energy    TOTEN  =    -53178.90296721 eV

  energy without entropy =   -53178.92723529  energy(sigma->0) =   -53178.91105657


--------------------------------------------------------------------------------------------------------


 E-fermi :  -2.5544     XC(G=0): -10.6282     alpha+bet : -0.6466


 k-point   1 :       0.0000    0.0000    0.0000
  band No.  band energies     occupation 
      1     -13.1685      2.00000
      2     -12.5579      2.00000
      3     -12.2153      2.00000
      4     -12.1897      2.00000
      5     -12.0038      2.00000
      6     -11.9680      2.00000
      7     -11.8977      2.00000
      8     -11.5868      2.00000
      9     -11.5674      2.00000
     10     -11.5396      2.00000
     11     -11.4846      2.00000
     12     -11.4112      2.00000
     13     -11.3988      2.00000
     14     -11.3403      2.00000
     15     -11.3273      2.00000
     16     -11.3008      2.00000
     17     -11.2669      2.00000
     18     -11.2583      2.00000
     19     -11.2454      2.00000
     20     -11.2383      2.00000
     21     -11.2157      2.00000
     22     -11.1902      2.00000
     23     -11.1823      2.00000
     24     -11.1548      2.00000
     25     -11.1190      2.00000
     26     -11.1079      2.00000
     27     -11.0806      2.00000
     28     -11.0567      2.00000
     29     -11.0405      2.00000
     30     -11.0237      2.00000
     31     -11.0103      2.00000
     32     -11.0006      2.00000
     33     -10.9756      2.00000
     34     -10.9651      2.00000
     35     -10.9571      2.00000
     36     -10.9533      2.00000
     37     -10.9195      2.00000
     38     -10.9002      2.00000
     39     -10.8915      2.00000
     40     -10.8724      2.00000
     41     -10.8651      2.00000
     42     -10.8437      2.00000
     43     -10.8246      2.00000
     44     -10.8192      2.00000
     45     -10.7980      2.00000
     46     -10.7912      2.00000
     47     -10.7846      2.00000
     48     -10.7702      2.00000
     49     -10.7674      2.00000
     50     -10.7430      2.00000
     51     -10.7282      2.00000
     52     -10.7236      2.00000
     53     -10.7179      2.00000
     54     -10.7018      2.00000
     55     -10.6920      2.00000
     56     -10.6831      2.00000
     57     -10.6718      2.00000
     58     -10.6555      2.00000
     59     -10.6507      2.00000
     60     -10.6363      2.00000
[...]
    264      -8.4362      2.00000
    265      -8.3878      2.00000
    266      -8.3081      2.00000
    267      -8.2508      2.00000
    268      -8.1749      2.00000
    269      -8.1492      2.00000
    270      -7.4930      2.00000
    271      -7.3418      2.00000
    272      -7.2373      2.00000
    273      -7.1581      2.00000
    274      -6.9508      2.00000
    275      -6.8957      2.00000
    276      -6.8056      2.00000
    277      -6.6004      2.00000
    278      -5.9289      2.00000
    279      -5.8688      2.00000
    280      -5.7518      2.00000
    281      -5.6386      2.00000
    282      -5.4730      2.00000
    283      -5.2488      2.00000
    284      -5.1173      2.00000
    285      -5.0206      2.00000
    286      -4.8443      2.00000
    287      -4.8025      2.00000
    288      -4.7154      2.00000
    289      -4.5316      2.00000
    290      -4.4663      2.00000
    291      -4.4442      2.00000
    292      -4.3543      2.00000
    293      -4.3255      2.00000
    294      -4.2754      2.00000
    295      -4.2376      2.00000
    296      -4.0342      2.00000
    297      -3.9746      2.00001
    298      -3.8767      2.00156
    299      -3.8670      2.00243
    300      -3.6889      1.92545
    301      -3.5532      0.11851
    302      -3.4600     -0.04795
    303      -3.2259      0.00000
    304      -3.1293      0.00000
    305      -3.0934      0.00000
    306      -2.9690      0.00000
    307      -2.8941      0.00000
    308      -2.8100      0.00000
    309      -2.7366      0.00000
    310      -2.5675      0.00000
    311      -2.5164      0.00000
    312      -2.4482      0.00000
    313      -2.3925      0.00000
    314      -2.2874      0.00000
    315      -2.0761      0.00000
    316      -1.8432      0.00000


--------------------------------------------------------------------------------------------------------


 soft charge-density along one line, spin component 1
         0         1         2         3         4         5         6         7         8         9
 total charge-density along one line
 
 pseudopotential strength for first ion, spin component: 1
 -8.740   0.000  -0.004   0.003   0.000 -30.452  -0.003  -0.012
  0.000  -8.737   0.001   0.004   0.000  -0.003 -30.438   0.003
 -0.004   0.001  -8.742   0.003  -0.002  -0.012   0.003 -30.444
  0.003   0.004   0.003  -8.738   0.003   0.011   0.010   0.011
  0.000   0.000  -0.002   0.003  -8.735   0.000   0.000  -0.006
-30.452  -0.003  -0.012   0.011   0.000 *******  -0.014  -0.042
 -0.003 -30.438   0.003   0.010   0.000  -0.014 *******   0.011
 -0.012   0.003 -30.444   0.011  -0.006  -0.042   0.011 *******
  0.011   0.010   0.011 -30.446   0.011   0.044   0.033   0.043
  0.000   0.000  -0.006   0.011 -30.416  -0.001   0.002  -0.021
 -0.013   0.004   0.023   0.005   0.021  -0.034   0.007   0.071
  0.005  -0.018   0.006  -0.037   0.007   0.014  -0.055   0.012
 -0.036   0.005  -0.001   0.018  -0.022  -0.113   0.014  -0.007
 total augmentation occupancy for first ion, spin component: 1
  3.370  -0.010  -0.006  -0.004   0.003  -0.002   0.001   0.001   0.001   0.000   0.004   0.000  -0.005
 -0.010   3.371   0.005   0.002  -0.001   0.000   0.000   0.000   0.000   0.001  -0.002   0.002   0.002
 -0.006   0.005   3.425   0.003   0.004   0.001   0.000  -0.008   0.001  -0.001   0.002  -0.003  -0.007
 -0.004   0.002   0.003   3.373   0.004   0.001   0.000   0.001  -0.001   0.000   0.006  -0.010   0.004
  0.003  -0.001   0.004   0.004   3.414   0.000   0.000  -0.001   0.000  -0.004   0.004   0.007  -0.002
 -0.002   0.000   0.001   0.001   0.000   0.002   0.000   0.000   0.000   0.000   0.000   0.000   0.002
  0.001   0.000   0.000   0.000   0.000   0.000   0.001   0.000   0.000   0.000   0.000   0.000   0.000
  0.001   0.000  -0.008   0.001  -0.001   0.000   0.000   0.002   0.000   0.000  -0.001   0.000   0.001
  0.001   0.000   0.001  -0.001   0.000   0.000   0.000   0.000   0.002   0.000  -0.001   0.002  -0.001
  0.000   0.001  -0.001   0.000  -0.004   0.000   0.000   0.000   0.000   0.001  -0.001  -0.001   0.001
  0.004  -0.002   0.002   0.006   0.004   0.000   0.000  -0.001  -0.001  -0.001   0.016  -0.001   0.000
  0.000   0.002  -0.003  -0.010   0.007   0.000   0.000   0.000   0.002  -0.001  -0.001   0.018  -0.002
 -0.005   0.002  -0.007   0.004  -0.002   0.002   0.000   0.001  -0.001   0.001   0.000  -0.002   0.019


------------------------ aborting loop because EDIFF is reached ----------------------------------------


    CHARGE:  cpu time    0.05: real time    0.06
    FORLOC:  cpu time    0.00: real time    0.01
    FORNL :  cpu time    0.41: real time    0.40
    STRESS:  cpu time    1.18: real time    1.18
    FORHAR:  cpu time    0.02: real time    0.02
    MIXING:  cpu time    0.00: real time    0.00

  FORCE on cell =-STRESS in cart. coord.  units (eV):
  Direction    XX          YY          ZZ          XY          YZ          ZX
  --------------------------------------------------------------------------------------
  Alpha Z  9011.06986  9011.06986  9011.06986
  Ewald  -16436.15733-16616.70692-17011.88633   438.44361  -236.57773  -566.01044
  Hartree  2977.79459  2892.07356  2763.41994   179.95238  -129.66509  -297.56717
  E(xc)   -2371.82930 -2371.82930 -2371.82930     0.00000     0.00000     0.00000
  Local   12678.32806 12940.51948 13432.90095  -593.35448   369.12533   860.77941
  n-local -2667.14105 -2667.40042 -2670.12033     5.00881    -0.42975    -0.46876
  augment -6486.35113 -6484.54012 -6469.02240   -13.52203    -1.88734     0.57994
  Kinetic  3295.26932  3308.34228  3300.06775     3.39176    -1.15100     4.06883
  Fock        0.00000     0.00000     0.00000     0.00000     0.00000     0.00000
  -------------------------------------------------------------------------------------
  Total       0.98302    11.52843   -15.39985    19.92005    -0.58558     1.38181
  in kB       1.25131    14.67477   -19.60278    25.35664    -0.74539     1.75894
  external pressure =       -1.23 kB  Pullay stress =        0.00 kB


 VOLUME and BASIS-vectors are now :
 -----------------------------------------------------------------------------
  energy-cutoff  :      140.00
  volume of cell :     1258.66
      direct lattice vectors                 reciprocal lattice vectors
    10.797000000  0.000000000  0.000000000     0.092618320  0.000000000  0.000000000
     0.000000000 10.797000000  0.000000000     0.000000000  0.092618320  0.000000000
     0.000000000  0.000000000 10.797000000     0.000000000  0.000000000  0.092618320

  length of vectors
    10.797000000 10.797000000 10.797000000     0.092618320  0.092618320  0.092618320


 FORCES acting on ions
    electron-ion (+dipol)            ewald-force                    non-local-force                 convergence-correction
 -----------------------------------------------------------------------------------------------
   0.316E+02 0.586E+02 0.222E+02   -.331E+02 -.605E+02 -.215E+02   0.101E+01 0.149E+01 -.355E+00   0.222E-01 -.305E-02 -.114E+00
   -.205E+02 -.131E+02 0.500E+02   0.230E+02 0.142E+02 -.520E+02   -.173E+01 -.731E+00 0.141E+01   -.108E-01 -.504E-01 -.199E-01
   -.999E+02 0.225E+02 -.336E+01   0.102E+03 -.231E+02 0.394E+01   -.138E+01 0.343E+00 -.366E+00   0.529E-01 -.408E-01 -.111E+00
   -.162E+02 -.414E+02 -.507E+02   0.169E+02 0.410E+02 0.516E+02   -.130E+00 0.380E+00 -.690E+00   -.491E-02 -.260E-01 -.983E-01
   0.452E+02 -.384E+02 0.780E+02   -.444E+02 0.432E+02 -.825E+02   0.587E-02 -.299E+01 0.302E+01   0.348E-01 0.552E-01 -.396E-01
   -.700E+02 0.199E+02 0.490E+02   0.729E+02 -.188E+02 -.501E+02   -.208E+01 -.455E+00 0.790E+00   -.116E-01 0.328E-01 0.122E-02
   -.392E+02 0.526E+02 -.726E+01   0.399E+02 -.546E+02 0.630E+01   -.756E+00 0.149E+01 0.704E+00   0.546E-01 0.161E-01 -.185E-01
   0.898E+02 0.637E+02 0.484E+02   -.929E+02 -.642E+02 -.519E+02   0.226E+01 0.779E+00 0.227E+01   -.267E-01 -.862E-02 -.146E-01
   0.454E+02 0.112E+03 0.597E+02   -.464E+02 -.115E+03 -.593E+02   0.900E+00 0.237E+01 -.283E+00   -.382E-01 0.404E-01 0.483E-01
   0.179E+03 -.202E+02 0.728E+02   -.183E+03 0.193E+02 -.743E+02   0.311E+01 0.646E+00 0.138E+01   -.270E-01 -.120E-01 0.947E-02
   0.302E+02 0.877E+02 -.388E+02   -.302E+02 -.901E+02 0.376E+02   -.595E-03 0.168E+01 0.852E+00   -.938E-01 0.489E-01 -.595E-01
   0.232E+02 0.877E+02 0.828E+00   -.272E+02 -.965E+02 0.235E+01   0.236E+01 0.543E+01 -.169E+01   0.396E-01 0.108E+00 -.292E-01
   -.250E+02 0.544E+02 0.842E+01   0.246E+02 -.545E+02 -.835E+01   0.501E+00 0.343E+00 -.104E-01   0.780E-01 -.374E-01 0.639E-01
   -.282E+02 -.204E+02 -.542E+02   0.269E+02 0.216E+02 0.551E+02   0.642E+00 -.992E+00 -.749E+00   0.121E+00 0.508E-01 -.115E-01
   0.631E+02 0.541E+02 -.569E+02   -.643E+02 -.555E+02 0.579E+02   0.757E+00 0.772E+00 -.904E+00   -.938E-01 0.265E-01 -.227E-01
   -.700E+02 0.526E+02 0.666E+01   0.714E+02 -.551E+02 -.654E+01   -.105E+01 0.181E+01 -.688E-01   -.938E-02 0.131E-01 0.357E-01
   -.102E+03 0.689E+02 -.450E+02   0.105E+03 -.683E+02 0.452E+02   -.206E+01 -.122E+00 -.150E+00   -.727E-01 -.645E-01 0.608E-01
   -.825E+02 -.234E+03 -.651E+02   0.990E+02 0.253E+03 0.742E+02   -.884E+01 -.109E+02 -.517E+01   0.349E-01 -.341E-01 -.605E-01
   -.106E+03 -.101E+03 -.407E+02   0.108E+03 0.102E+03 0.414E+02   -.161E+01 -.101E+01 -.571E+00   0.568E-01 0.843E-01 -.563E-01
   -.403E+02 0.105E+02 0.976E+02   0.409E+02 -.102E+02 -.991E+02   -.310E+00 -.198E+00 0.127E+01   -.166E-01 -.215E-01 0.685E-01
   -.116E+03 0.189E+01 0.430E+02   0.120E+03 -.237E+01 -.467E+02   -.183E+01 0.306E+00 0.231E+01   0.828E-01 -.158E-01 0.525E-01
   -.779E+02 -.422E+02 0.419E+02   0.830E+02 0.455E+02 -.440E+02   -.304E+01 -.184E+01 0.135E+01   0.216E-02 0.127E-01 0.524E-02
   0.664E+02 0.726E+02 0.887E+02   -.683E+02 -.756E+02 -.895E+02   0.139E+01 0.209E+01 0.604E+00   -.872E-01 -.147E-01 -.637E-02
   0.345E+02 0.320E+02 0.372E+02   -.384E+02 -.305E+02 -.369E+02   0.269E+01 -.104E+01 -.205E+00   0.144E-01 -.849E-02 0.352E-01
   -.200E+01 -.149E+03 0.501E+02   0.404E+01 0.153E+03 -.503E+02   -.132E+01 -.262E+01 0.306E+00   -.157E-01 0.286E-01 0.446E-01
   0.117E+02 0.614E+02 -.611E+02   -.124E+02 -.630E+02 0.621E+02   0.193E+00 0.134E+01 -.740E+00   0.640E-02 -.102E+00 0.185E+00
   0.105E+03 -.454E+02 0.375E+02   -.108E+03 0.497E+02 -.389E+02   0.180E+01 -.293E+01 0.937E+00   -.131E-01 -.143E-01 -.468E-01
   0.120E+01 -.294E+02 -.174E+03   -.160E+01 0.308E+02 0.178E+03   0.195E+00 -.720E+00 -.296E+01   -.534E-01 -.115E-01 -.983E-01
   0.861E+01 -.228E+02 -.207E+03   -.744E+01 0.221E+02 0.214E+03   -.749E+00 0.255E+00 -.419E+01   -.396E-01 -.120E-01 0.346E-01
   0.161E+03 0.596E+02 0.336E+02   -.180E+03 -.746E+02 -.439E+02   0.972E+01 0.780E+01 0.578E+01   0.198E-01 -.840E-01 0.101E+00
   -.166E+02 -.168E+00 0.699E+02   0.170E+02 0.879E+00 -.699E+02   -.644E+00 -.451E+00 -.134E+00   -.173E-01 -.568E-01 0.118E-01
   -.291E+02 -.106E+03 0.428E+02   0.300E+02 0.108E+03 -.444E+02   -.696E+00 -.116E+01 0.115E+01   -.493E-01 0.306E-01 0.915E-01
   -.151E+02 0.277E+02 0.833E+02   0.179E+02 -.313E+02 -.839E+02   -.195E+01 0.239E+01 0.584E+00   -.246E-01 0.741E-03 0.617E-01
   0.637E+02 -.679E+01 -.584E+02   -.653E+02 0.687E+01 0.615E+02   0.118E+01 -.321E+00 -.211E+01   -.207E-01 -.438E-01 -.444E-02
   -.214E+02 -.233E+02 0.839E+02   0.224E+02 0.237E+02 -.849E+02   -.878E+00 0.119E+00 0.625E+00   0.316E-01 -.701E-01 0.276E-01
   0.335E+02 0.165E+02 0.368E+02   -.325E+02 -.143E+02 -.370E+02   -.772E+00 -.162E+01 0.201E+00   -.667E-01 -.424E-01 -.659E-01
   0.235E+02 -.772E+02 -.477E+02   -.257E+02 0.780E+02 0.483E+02   0.147E+01 -.677E+00 -.421E+00   0.233E-01 0.149E-01 -.225E-01
   -.160E+02 -.548E+02 0.156E+02   0.164E+02 0.569E+02 -.154E+02   -.491E+00 -.145E+01 -.992E-01   0.528E-01 -.939E-02 -.481E-01
   0.190E+02 0.585E+02 0.259E+02   -.188E+02 -.586E+02 -.265E+02   -.651E-01 0.333E+00 0.212E+00   -.298E-01 -.377E-01 -.105E-01
   -.233E+02 -.183E+02 -.331E+02   0.222E+02 0.196E+02 0.356E+02   0.397E+00 -.750E+00 -.147E+01   0.274E-01 0.465E-01 0.153E-01
   -.184E+02 0.366E+02 -.944E+02   0.157E+02 -.404E+02 0.982E+02   0.118E+01 0.192E+01 -.247E+01   0.273E-01 0.249E-01 -.100E+00
   -.816E+01 0.894E+02 0.257E+02   0.701E+01 -.916E+02 -.258E+02   0.762E+00 0.167E+01 0.391E+00   0.489E-01 0.101E+00 0.525E-01
   0.551E+02 0.867E+02 -.494E+01   -.562E+02 -.893E+02 0.577E+01   0.107E+01 0.176E+01 -.481E+00   -.911E-01 0.759E-01 0.188E-01
   0.828E+02 -.487E+02 -.292E+02   -.839E+02 0.495E+02 0.293E+02   0.836E+00 -.770E+00 -.107E+00   0.369E-02 0.374E-01 -.776E-02
   -.309E+02 0.157E+01 0.432E+02   0.314E+02 -.209E+01 -.445E+02   -.304E+00 0.553E+00 0.867E+00   -.525E-01 0.343E-01 -.479E-01
   0.314E+02 -.513E+02 0.250E+02   -.318E+02 0.517E+02 -.255E+02   0.189E+00 -.118E+00 0.224E+00   0.538E-02 0.218E-01 0.709E-01
   -.322E+02 0.265E+01 -.356E+02   0.320E+02 -.136E+01 0.359E+02   -.201E+00 -.832E+00 -.547E+00   0.674E-01 -.385E-01 -.281E-02
   0.443E+01 -.983E+02 -.748E+01   -.438E+01 0.102E+03 0.849E+01   -.172E-01 -.229E+01 -.773E+00   -.330E-01 -.282E-01 -.809E-01
   -.820E+02 0.123E+02 -.229E+02   0.855E+02 -.127E+02 0.241E+02   -.255E+01 0.616E-01 -.110E+01   -.200E-03 0.232E-01 -.148E-01
   -.204E+02 -.607E+02 -.135E+03   0.206E+02 0.615E+02 0.137E+03   -.157E+00 -.758E+00 -.120E+01   -.968E-02 -.409E-02 -.213E-01
 -----------------------------------------------------------------------------------------------
   -.345E+00 0.932E+00 0.346E+01   0.412E-12 -.256E-12 -.512E-12   -.981E+00 0.357E+00 -.278E+01   -.101E+00 0.369E-01 -.138E+00
 
 
 POSITION                                       TOTAL-FORCE (eV/Angst)
 -----------------------------------------------------------------------------------
      3.24328     10.50075      7.34089        -0.389098     -0.404748      0.195663
      1.08401      9.35687      9.57247         0.780081      0.287052     -0.657116
      4.56982      9.26214      9.72583         0.582997     -0.363947      0.091576
      6.62454     10.19823      7.35117         0.585517     -0.076605      0.080794
     10.47986      7.08623      9.54557         0.829841      1.904419     -1.515551
      3.79900      3.69710      1.21760         0.839731      0.608079     -0.312913
      3.48269      4.70026      7.37769         0.012764     -0.518951     -0.284881
      8.65117     10.55880      9.98324        -0.859970      0.168538     -1.277944
      3.83955      3.01461      4.87759        -0.065693     -0.756394      0.113997
      6.59527      1.63203      0.09863        -0.607497     -0.334201     -0.090437
      7.17977      5.63848      7.21688        -0.063005     -0.662102     -0.405506
      9.66383      5.00941     10.48488        -1.545328     -3.290650      1.445573
      1.54874      6.53825      1.25528         0.154066      0.162471      0.111510
      1.70945      4.00410      9.56283        -0.475577      0.246327      0.079231
      5.71318      4.94400      9.58613        -0.514260     -0.613522      0.102874
      6.73567      9.70534      1.46252         0.462719     -0.670956      0.077437
      8.94850      2.49853      1.50695         0.602257      0.396428      0.097234
      4.18545     10.71584      2.09466         7.723049      7.785296      3.853302
      3.13325      1.16806     10.08191         0.306261      0.411751      0.096934
      8.40213     10.58418      4.32968         0.349887      0.065309     -0.241847
     10.56360      4.72478      2.90515         1.457555     -0.211385     -1.324332
      0.92947      5.56632      6.17134         2.156365      1.444012     -0.750255
      6.95656      5.05880      1.57237        -0.577361     -0.914915     -0.195293
     10.43287      2.36629      4.67540        -1.138454      0.387151      0.103381
      8.60585      7.15637      1.61384         0.738599      1.059420      0.137983
      3.11504      8.63693      4.15932        -0.534038     -0.325017      0.429682
      3.10986      5.41653      3.93889        -1.046831      1.391998     -0.535491
      7.18787      7.70490      9.02233        -0.223440      0.655833      0.875336
     10.32308     10.01501      1.13102         0.415938     -0.517304      1.954069
      2.69314      9.32311      1.39219        -8.356658     -7.364591     -4.453970
      4.65681      6.85450      1.34947        -0.166875      0.177108     -0.124960
      6.43765      7.98922      4.04788         0.231539      0.692569     -0.409284
      1.26814      0.31625      4.34605         0.822700     -1.248731      0.094384
      6.59251      2.00350      2.94922        -0.335673     -0.304610      0.966188
      4.96812      0.08762      5.08629         0.160051      0.405671     -0.305007
      8.25669      2.81332      9.01857         0.116793      0.586933     -0.079531
      0.30229      1.45242      9.91397        -0.681082      0.113518      0.222145
      1.32730      1.84728      7.08411        -0.046111      0.633582     -0.001582
      7.52783      2.54075      5.98492         0.161026      0.185201     -0.411381
      8.55677      5.39054      4.31685        -0.611913      0.521699      0.966652
      9.80506      4.27097      7.00019        -1.476817     -1.967606      1.202388
      1.57504      2.59370      2.22510        -0.306739     -0.512810      0.348054
      5.85190      5.21033      4.33008        -0.136611     -0.722177      0.357152
      4.85877      7.39184      6.54963        -0.182872      0.043596      0.054754
      8.70883      7.95143      6.45031         0.169913      0.038587     -0.528386
     10.78357      8.01421      3.61286        -0.130675      0.276619     -0.259498
      2.82233      6.91179      8.89869        -0.258379      0.392876     -0.214067
      9.73603     10.53029      7.08485         0.021872      1.012614      0.149909
      0.81245      8.48448      6.34256         0.988919     -0.302192      0.095190
      5.06668      2.08226      7.47765         0.060519      0.028756      0.075839
 -----------------------------------------------------------------------------------
    total drift:                               -1.427816      1.326517      0.537990


--------------------------------------------------------------------------------------------------------



  FREE ENERGIE OF THE ION-ELECTRON SYSTEM (eV)
  ---------------------------------------------------
  free  energy   TOTEN  =    -53232.707599 eV

  energy  without entropy=   -53232.715096  energy(sigma->0) =   -53232.710098
 


--------------------------------------------------------------------------------------------------------


    POTLOK:  cpu time    0.01: real time    0.02


--------------------------------------------------------------------------------------------------------


  FORCES: max atom, RMS    11.996199    2.666820
  FORCE total and by dimension   18.857265    8.356658
     LOOP+:  cpu time   22.17: real time   22.21
    4ORBIT:  cpu time    0.00: real time    0.00

 total amount of memory used by VASP on root node    38188. kBytes
========================================================================

   base      :      30000. kBytes
   nonlr-proj:       2421. kBytes
   fftplans  :        919. kBytes
   grid      :       1229. kBytes
   one-center:        202. kBytes
   wavefun   :       3417. kBytes
 
  
  
 General timing and accounting informations for this job:
 ========================================================
  
                  Total CPU time used (sec):       23.492
                            User time (sec):       22.282
                          System time (sec):        1.210
                         Elapsed time (sec):       33.565
  
                   Maximum memory used (kb):           0.
                   Average memory used (kb):           0.
  
                          Minor page faults:       109713
                          Major page faults:          100
                 Voluntary context switches:         7314
