<?xml version="1.0" encoding="ISO-8859-1"?>
<modeling>
 <generator>
  <i name="program" type="string">vasp </i>
  <i name="version" type="string">5.2.11  </i>
  <i name="subversion" type="string">18Jan11 complex  parallel </i>
  <i name="platform" type="string">Marenostrum </i>
  <i name="date" type="string">2011 07 25 </i>
  <i name="time" type="string">10:52:26 </i>
 </generator>
 <incar>
  <i type="string" name="SYSTEM">  Hg</i>
  <i type="string" name="PREC">normal</i>
  <i type="int" name="IALGO">    48</i>
  <i type="int" name="NSIM">     4</i>
  <i name="BMIX">      2.50000000</i>
  <i type="int" name="NELM">    13</i>
  <i type="int" name="NELMDL">     7</i>
  <i type="int" name="NELMIN">     3</i>
  <i name="EDIFF">      0.00010000</i>
  <i type="int" name="NSW">     0</i>
  <i type="int" name="ISYM">     0</i>
  <i type="int" name="NBLOCK">     1</i>
  <i type="int" name="KBLOCK">     5</i>
  <i name="ENMAX">    140.00000000</i>
  <i type="int" name="NGX">    30</i>
  <i type="int" name="NGY">    30</i>
  <i type="int" name="NGZ">    30</i>
  <i type="int" name="NGXF">    48</i>
  <i type="int" name="NGYF">    48</i>
  <i type="int" name="NGZF">    48</i>
  <i type="int" name="NBANDS">   316</i>
  <i name="POTIM">      5.00000000</i>
  <i name="TEBEG">    423.00000000</i>
  <i name="APACO">     10.00000000</i>
  <i name="SMASS">      0.50000000</i>
  <v name="POMASS">    200.59000000</v>
  <i type="logical" name="LREAL"> T  </i>
  <i type="logical" name="LPLANE"> T  </i>
  <i name="EMIN">    -15.00000000</i>
  <i name="EMAX">      0.00000000</i>
  <i type="int" name="ISMEAR">     1</i>
  <i name="SIGMA">      0.10000000</i>
  <i type="int" name="NWRITE">     2</i>
  <i type="logical" name="LWAVE"> F  </i>
  <i type="logical" name="LCHARG"> F  </i>
  <i type="int" name="NELM">    13</i>
  <i type="logical" name="LPEAD"> F  </i>
  <i type="logical" name="LCALCPOL"> F  </i>
  <i type="logical" name="LCALCEPS"> F  </i>
  <v name="EFIELD_PEAD">      0.00000000      0.00000000      0.00000000</v>
  <i type="logical" name="LEFG"> F  </i>
  <i type="logical" name="LRHFATM"> F  </i>
  <i type="string" name="METAGGA">--</i>
  <i type="int" name="LMAXTAU">     0</i>
 </incar>
 <kpoints>
  <varray name="kpointlist" >
   <v>       0.00000000       0.00000000       0.00000000 </v>
  </varray>
  <varray name="weights" >
   <v>       1.00000000 </v>
  </varray>
 </kpoints>
 <parameters>
  <separator name="general" >
   <i type="string" name="SYSTEM">Hg</i>
   <i type="logical" name="LCOMPAT"> F  </i>
  </separator>
  <separator name="electronic" >
   <i type="string" name="PREC">normal</i>
   <i name="ENMAX">    140.00000000</i>
   <i name="ENAUG">    265.44400000</i>
   <i name="EDIFF">      0.00010000</i>
   <i type="int" name="IALGO">    48</i>
   <i type="int" name="IWAVPR">    10</i>
   <i type="int" name="NBANDS">   316</i>
   <i name="NELECT">    600.00000000</i>
   <i type="int" name="TURBO">     0</i>
   <i type="int" name="IRESTART">     0</i>
   <i type="int" name="NREBOOT">     0</i>
   <i type="int" name="NMIN">     0</i>
   <i name="EREF">      0.00000000</i>
   <separator name="electronic smearing" >
    <i type="int" name="ISMEAR">     1</i>
    <i name="SIGMA">      0.10000000</i>
    <i name="KSPACING">      0.50000000</i>
    <i type="logical" name="KGAMMA"> T  </i>
   </separator>
   <separator name="electronic projectors" >
    <i type="logical" name="LREAL"> T  </i>
    <v name="ROPT">      0.00000000</v>
    <i type="int" name="LMAXPAW">  -100</i>
    <i type="int" name="LMAXMIX">     2</i>
   </separator>
   <separator name="electronic startup" >
    <i type="int" name="ISTART">     0</i>
    <i type="int" name="ICHARG">     2</i>
    <i type="int" name="INIWAV">     1</i>
   </separator>
   <separator name="electronic spin" >
    <i type="int" name="ISPIN">     1</i>
    <i type="logical" name="LNONCOLLINEAR"> F  </i>
    <v name="MAGMOM">      1.00000000      1.00000000      1.00000000      1.00000000      1.00000000      1.00000000      1.00000000      1.00000000      1.00000000      1.00000000      1.00000000      1.00000000      1.00000000      1.00000000      1.00000000      1.00000000      1.00000000      1.00000000      1.00000000      1.00000000
      1.00000000      1.00000000      1.00000000      1.00000000      1.00000000      1.00000000      1.00000000      1.00000000      1.00000000      1.00000000      1.00000000      1.00000000      1.00000000      1.00000000      1.00000000      1.00000000      1.00000000      1.00000000      1.00000000      1.00000000
      1.00000000      1.00000000      1.00000000      1.00000000      1.00000000      1.00000000      1.00000000      1.00000000      1.00000000      1.00000000</v>
    <i name="NUPDOWN">     -1.00000000</i>
    <i type="logical" name="LSORBIT"> F  </i>
    <v name="SAXIS">      0.00000000      0.00000000      1.00000000</v>
    <i type="logical" name="LSPIRAL"> F  </i>
    <v name="QSPIRAL">      0.00000000      0.00000000      0.00000000</v>
    <i type="logical" name="LZEROZ"> F  </i>
   </separator>
   <separator name="electronic exchange-correlation" >
    <i type="logical" name="LASPH"> F  </i>
    <i type="logical" name="LMETAGGA"> F  </i>
   </separator>
   <separator name="electronic convergence" >
    <i type="int" name="NELM">    13</i>
    <i type="int" name="NELMDL">     7</i>
    <i type="int" name="NELMIN">     3</i>
    <i name="ENINI">    140.00000000</i>
    <separator name="electronic convergence detail" >
     <i type="logical" name="LDIAG"> T  </i>
     <i type="logical" name="LSUBROT"> T  </i>
     <i name="WEIMIN">      0.00000000</i>
     <i name="EBREAK">      0.00000008</i>
     <i name="DEPER">      0.30000000</i>
     <i type="int" name="NRMM">     4</i>
     <i name="TIME">      0.40000000</i>
    </separator>
   </separator>
   <separator name="electronic mixer" >
    <i name="AMIX">      0.80000000</i>
    <i name="BMIX">      2.50000000</i>
    <i name="AMIN">      0.10000000</i>
    <i name="AMIX_MAG">      3.20000000</i>
    <i name="BMIX_MAG">      2.50000000</i>
    <separator name="electronic mixer details" >
     <i type="int" name="IMIX">     4</i>
     <i type="int" name="MAXMIX">   -45</i>
     <i name="WC">    100.00000000</i>
     <i type="int" name="INIMIX">     1</i>
     <i type="int" name="MIXPRE">     1</i>
     <i type="int" name="MREMOVE">     5</i>
    </separator>
   </separator>
   <separator name="electronic dipolcorrection" >
    <i type="logical" name="LDIPOL"> F  </i>
    <i type="logical" name="LMONO"> F  </i>
    <i type="int" name="IDIPOL">     0</i>
    <i name="EPSILON">      1.00000000</i>
    <v name="DIPOL">   -100.00000000   -100.00000000   -100.00000000</v>
    <i name="EFIELD">      0.00000000</i>
   </separator>
  </separator>
  <separator name="grids" >
   <i type="int" name="NGX">    30</i>
   <i type="int" name="NGY">    30</i>
   <i type="int" name="NGZ">    30</i>
   <i type="int" name="NGXF">    48</i>
   <i type="int" name="NGYF">    48</i>
   <i type="int" name="NGZF">    48</i>
   <i type="logical" name="ADDGRID"> F  </i>
  </separator>
  <separator name="ionic" >
   <i type="int" name="NSW">     0</i>
   <i type="int" name="IBRION">    -1</i>
   <i type="int" name="ISIF">     2</i>
   <i name="PSTRESS">      0.00000000</i>
   <i name="EDIFFG">      0.00100000</i>
   <i type="int" name="NFREE">     0</i>
   <i name="POTIM">      5.00000000</i>
   <i name="SMASS">      0.50000000</i>
  </separator>
  <separator name="ionic md" >
   <i name="TEBEG">    423.00000000</i>
   <i name="TEEND">    423.00000000</i>
   <i type="int" name="NBLOCK">     1</i>
   <i type="int" name="KBLOCK">     1</i>
   <i type="int" name="NPACO">   256</i>
   <i name="APACO">     10.00000000</i>
  </separator>
  <separator name="symmetry" >
   <i type="int" name="ISYM">     0</i>
   <i name="SYMPREC">      0.00001000</i>
  </separator>
  <separator name="dos" >
   <i type="logical" name="LORBIT"> F  </i>
   <v name="RWIGS">     -1.00000000</v>
   <i type="int" name="NEDOS">   301</i>
   <i name="EMIN">    -15.00000000</i>
   <i name="EMAX">      0.00000000</i>
   <i name="EFERMI">      0.00000000</i>
  </separator>
  <separator name="writing" >
   <i type="int" name="NWRITE">     2</i>
   <i type="logical" name="LWAVE"> F  </i>
   <i type="logical" name="LCHARG"> F  </i>
   <i type="logical" name="LPARD"> F  </i>
   <i type="logical" name="LVTOT"> F  </i>
   <i type="logical" name="LVHAR"> F  </i>
   <i type="logical" name="LELF"> F  </i>
   <i type="logical" name="LOPTICS"> F  </i>
   <v name="STM">      0.00000000      0.00000000      0.00000000      0.00000000      0.00000000      0.00000000      0.00000000</v>
  </separator>
  <separator name="performance" >
   <i type="int" name="NPAR">     4</i>
   <i type="int" name="NSIM">     4</i>
   <i type="int" name="NBLK">    -1</i>
   <i type="logical" name="LPLANE"> T  </i>
   <i type="logical" name="LSCALAPACK"> T  </i>
   <i type="logical" name="LSCAAWARE"> F  </i>
   <i type="logical" name="LSCALU"> F  </i>
   <i type="logical" name="LASYNC"> F  </i>
   <i type="logical" name="LORBITALREAL"> F  </i>
  </separator>
  <separator name="miscellaneous" >
   <i type="int" name="IDIOT">     3</i>
   <i type="logical" name="LMUSIC"> F  </i>
   <v name="POMASS">    200.59000000</v>
   <v name="DARWINR">      0.00000000</v>
   <v name="DARWINV">      1.00000000</v>
   <i type="logical" name="LCORR"> T  </i>
  </separator>
  <i type="logical" name="GGA_COMPAT"> T  </i>
  <i type="logical" name="LBERRY"> F  </i>
  <i type="int" name="ICORELEVEL">     0</i>
  <i type="logical" name="LDAU"> F  </i>
  <i type="int" name="I_CONSTRAINED_M">     0</i>
  <separator name="electronic exchange-correlation" >
   <i type="string" name="GGA">--</i>
   <i type="int" name="VOSKOWN">     0</i>
   <i type="logical" name="LHFCALC"> F  </i>
   <i type="string" name="PRECFOCK"></i>
   <i type="logical" name="LHFONE"> F  </i>
   <i type="logical" name="LRHFCALC"> F  </i>
   <i type="logical" name="LTHOMAS"> F  </i>
   <i type="logical" name="LMODELHF"> F  </i>
   <i name="ENCUT4O">     -1.00000000</i>
   <i type="int" name="EXXOEP">     0</i>
   <i type="int" name="FOURORBIT">     0</i>
   <i name="AEXX">      0.00000000</i>
   <i name="HFALPHA">      0.00000000</i>
   <i name="ALDAX">      1.00000000</i>
   <i name="AGGAX">      1.00000000</i>
   <i name="ALDAC">      1.00000000</i>
   <i name="AGGAC">      1.00000000</i>
   <i type="int" name="NKREDX">     1</i>
   <i type="int" name="NKREDY">     1</i>
   <i type="int" name="NKREDZ">     1</i>
   <i type="logical" name="SHIFTRED"> F  </i>
   <i type="logical" name="ODDONLY"> F  </i>
   <i type="logical" name="EVENONLY"> F  </i>
   <i type="int" name="LMAXFOCK">     0</i>
   <i type="int" name="NMAXFOCKAE">     0</i>
   <i type="logical" name="LFOCKAEDFT"> F  </i>
   <i name="HFSCREEN">      0.00000000</i>
   <i name="HFSCREENC">      0.00000000</i>
  </separator>
  <separator name="model GW" >
   <i type="int" name="MODEL_GW">     0</i>
   <i name="MODEL_EPS0">     15.10395038</i>
   <i name="MODEL_ALPHA">      1.00000000</i>
  </separator>
  <separator name="linear response parameters" >
   <i type="logical" name="LEPSILON"> F  </i>
   <i type="logical" name="LRPA"> F  </i>
   <i type="logical" name="LNABLA"> F  </i>
   <i type="logical" name="LVEL"> F  </i>
   <i type="int" name="KINTER">     0</i>
   <i name="CSHIFT">      0.10000000</i>
   <i name="OMEGAMAX">     -1.00000000</i>
  </separator>
  <separator name="orbital magnetization" >
   <i type="logical" name="ORBITALMAG"> F  </i>
   <i type="logical" name="LMAGBLOCH"> F  </i>
   <i type="logical" name="LCHIMAG"> F  </i>
   <i type="logical" name="LGAUGE"> T  </i>
   <i type="int" name="MAGATOM">     0</i>
   <v name="MAGDIPOL">      0.00000000      0.00000000      0.00000000</v>
   <v name="AVECCONST">      0.00000000      0.00000000      0.00000000</v>
  </separator>
  <separator name="response functions" >
   <i type="logical" name="LRPA"> T  </i>
   <i type="logical" name="LIP"> F  </i>
   <i type="logical" name="LTCTE"> F  </i>
   <i type="logical" name="LTETE"> F  </i>
   <i type="logical" name="L2ORDER"> F  </i>
   <i type="logical" name="LUSEW"> F  </i>
   <i name="ENCUTGW">     -2.00000000</i>
   <i name="ENCUTGWSOFT">     -2.00000000</i>
   <i name="ENCUTLF">     -1.00000000</i>
   <i type="int" name="LMAXMP2">    -1</i>
   <i name="SCISSOR">      0.00000000</i>
   <i type="int" name="NOMEGA">     0</i>
   <i type="int" name="NOMEGAR">     0</i>
   <i type="int" name="NBANDSGW">    -1</i>
   <i type="int" name="NBANDSO">    -1</i>
   <i type="int" name="NBANDSV">    -1</i>
   <i type="int" name="NELM">    13</i>
   <i type="int" name="DIM">     3</i>
   <i type="int" name="ANTIRES">     0</i>
   <i name="OMEGAMAX">    -30.00000000</i>
   <i name="OMEGATL">   -200.00000000</i>
   <i type="int" name="OMEGAGRID">     0</i>
   <i name="CSHIFT">     -0.10000000</i>
   <i type="logical" name="SELFENERGY"> F  </i>
   <i type="logical" name="LSPECTRAL"> F  </i>
   <i type="logical" name="ODDONLYGW"> F  </i>
   <i type="logical" name="EVENONLYGW"> F  </i>
   <i type="int" name="NKREDLFX">     1</i>
   <i type="int" name="NKREDLFY">     1</i>
   <i type="int" name="NKREDLFZ">     1</i>
   <i type="int" name="MAXMEM">  1800</i>
   <i type="int" name="TELESCOPE">     0</i>
  </separator>
 </parameters>
 <atominfo>
  <atoms>      50 </atoms>
  <types>       1 </types>
  <array name="atoms" >
   <dimension dim="1">ion</dimension>
   <field type="string">element</field>
   <field type="int">atomtype</field>
   <set>
    <rc><c>Hg</c><c>   1</c></rc>
    <rc><c>Hg</c><c>   1</c></rc>
    <rc><c>Hg</c><c>   1</c></rc>
    <rc><c>Hg</c><c>   1</c></rc>
    <rc><c>Hg</c><c>   1</c></rc>
    <rc><c>Hg</c><c>   1</c></rc>
    <rc><c>Hg</c><c>   1</c></rc>
    <rc><c>Hg</c><c>   1</c></rc>
    <rc><c>Hg</c><c>   1</c></rc>
    <rc><c>Hg</c><c>   1</c></rc>
    <rc><c>Hg</c><c>   1</c></rc>
    <rc><c>Hg</c><c>   1</c></rc>
    <rc><c>Hg</c><c>   1</c></rc>
    <rc><c>Hg</c><c>   1</c></rc>
    <rc><c>Hg</c><c>   1</c></rc>
    <rc><c>Hg</c><c>   1</c></rc>
    <rc><c>Hg</c><c>   1</c></rc>
    <rc><c>Hg</c><c>   1</c></rc>
    <rc><c>Hg</c><c>   1</c></rc>
    <rc><c>Hg</c><c>   1</c></rc>
    <rc><c>Hg</c><c>   1</c></rc>
    <rc><c>Hg</c><c>   1</c></rc>
    <rc><c>Hg</c><c>   1</c></rc>
    <rc><c>Hg</c><c>   1</c></rc>
    <rc><c>Hg</c><c>   1</c></rc>
    <rc><c>Hg</c><c>   1</c></rc>
    <rc><c>Hg</c><c>   1</c></rc>
    <rc><c>Hg</c><c>   1</c></rc>
    <rc><c>Hg</c><c>   1</c></rc>
    <rc><c>Hg</c><c>   1</c></rc>
    <rc><c>Hg</c><c>   1</c></rc>
    <rc><c>Hg</c><c>   1</c></rc>
    <rc><c>Hg</c><c>   1</c></rc>
    <rc><c>Hg</c><c>   1</c></rc>
    <rc><c>Hg</c><c>   1</c></rc>
    <rc><c>Hg</c><c>   1</c></rc>
    <rc><c>Hg</c><c>   1</c></rc>
    <rc><c>Hg</c><c>   1</c></rc>
    <rc><c>Hg</c><c>   1</c></rc>
    <rc><c>Hg</c><c>   1</c></rc>
    <rc><c>Hg</c><c>   1</c></rc>
    <rc><c>Hg</c><c>   1</c></rc>
    <rc><c>Hg</c><c>   1</c></rc>
    <rc><c>Hg</c><c>   1</c></rc>
    <rc><c>Hg</c><c>   1</c></rc>
    <rc><c>Hg</c><c>   1</c></rc>
    <rc><c>Hg</c><c>   1</c></rc>
    <rc><c>Hg</c><c>   1</c></rc>
    <rc><c>Hg</c><c>   1</c></rc>
    <rc><c>Hg</c><c>   1</c></rc>
   </set>
  </array>
  <array name="atomtypes" >
   <dimension dim="1">type</dimension>
   <field type="int">atomspertype</field>
   <field type="string">element</field>
   <field>mass</field>
   <field>valence</field>
   <field type="string">pseudopotential</field>
   <set>
    <rc><c>  50</c><c>Hg</c><c>    200.59000000</c><c>     12.00000000</c><c> Hg: s-lok R=3.1 Ra=2.8 real-opt[3.2-6.2</c></rc>
   </set>
  </array>
 </atominfo>
 <structure name="initialpos" >
  <crystal>
   <varray name="basis" >
    <v>      10.79700000       0.00000000       0.00000000 </v>
    <v>       0.00000000      10.79700000       0.00000000 </v>
    <v>       0.00000000       0.00000000      10.79700000 </v>
   </varray>
   <i name="volume">   1258.66253157 </i>
   <varray name="rec_basis" >
    <v>       0.09261832       0.00000000       0.00000000 </v>
    <v>       0.00000000       0.09261832       0.00000000 </v>
    <v>       0.00000000       0.00000000       0.09261832 </v>
   </varray>
  </crystal>
  <varray name="positions" >
   <v>       0.30038700       0.97256200       0.67990100 </v>
   <v>       0.10039900       0.86661800       0.88658600 </v>
   <v>       0.42324900       0.85784400       0.90079000 </v>
   <v>       0.61355400       0.94454300       0.68085300 </v>
   <v>       0.97062700       0.65631500       0.88409500 </v>
   <v>       0.35185700       0.34241900       0.11277200 </v>
   <v>       0.32256100       0.43533000       0.68330900 </v>
   <v>       0.80125700       0.97793800       0.92463100 </v>
   <v>       0.35561300       0.27920800       0.45175400 </v>
   <v>       0.61084300       0.15115600       0.00913500 </v>
   <v>       0.66497800       0.52222700       0.66841500 </v>
   <v>       0.89504800       0.46396300       0.97109200 </v>
   <v>       0.14344200       0.60556200       0.11626200 </v>
   <v>       0.15832600       0.37085300       0.88569300 </v>
   <v>       0.52914500       0.45790500       0.88785100 </v>
   <v>       0.62384600       0.89889200       0.13545600 </v>
   <v>       0.82879500       0.23141000       0.13957100 </v>
   <v>       0.38764900       0.99248300       0.19400400 </v>
   <v>       0.29019600       0.10818400       0.93377000 </v>
   <v>       0.77819100       0.98028900       0.40100800 </v>
   <v>       0.97838300       0.43760100       0.26907000 </v>
   <v>       0.08608600       0.51554300       0.57157900 </v>
   <v>       0.64430500       0.46853800       0.14563000 </v>
   <v>       0.96627500       0.21916200       0.43302800 </v>
   <v>       0.79705900       0.66281100       0.14947100 </v>
   <v>       0.28851000       0.79993800       0.38522900 </v>
   <v>       0.28803000       0.50167000       0.36481300 </v>
   <v>       0.66572800       0.71361500       0.83563300 </v>
   <v>       0.95610600       0.92757300       0.10475300 </v>
   <v>       0.24943400       0.86349100       0.12894200 </v>
   <v>       0.43130600       0.63485200       0.12498600 </v>
   <v>       0.59624400       0.73994800       0.37490800 </v>
   <v>       0.11745300       0.02929100       0.40252400 </v>
   <v>       0.61058700       0.18556100       0.27315200 </v>
   <v>       0.46013900       0.00811500       0.47108400 </v>
   <v>       0.76472100       0.26056500       0.83528500 </v>
   <v>       0.02799800       0.13452100       0.91821500 </v>
   <v>       0.12293200       0.17109200       0.65611800 </v>
   <v>       0.69721500       0.23532000       0.55431300 </v>
   <v>       0.79251400       0.49926300       0.39981900 </v>
   <v>       0.90812800       0.39557000       0.64834600 </v>
   <v>       0.14587800       0.24022400       0.20608500 </v>
   <v>       0.54199300       0.48257200       0.40104500 </v>
   <v>       0.45001100       0.68462000       0.60661600 </v>
   <v>       0.80659700       0.73644800       0.59741700 </v>
   <v>       0.99875600       0.74226300       0.33461700 </v>
   <v>       0.26139900       0.64015800       0.82418200 </v>
   <v>       0.90173500       0.97529800       0.65618700 </v>
   <v>       0.07524800       0.78581800       0.58743700 </v>
   <v>       0.46926700       0.19285500       0.69256700 </v>
  </varray>
 </structure>
 <calculation>
  <scstep>
   <time name="diag">    0.57    0.57</time>
   <time name="diis">    0.43    0.43</time>
   <time name="orth">    0.23    0.23</time>
   <time name="total">    1.25    1.26</time>
   <energy>
    <i name="alphaZ">   9011.06985828 </i>
    <i name="ewald"> -50064.50825885 </i>
    <i name="hartreedc">  -8912.93658916 </i>
    <i name="XCdc">   2392.06390177 </i>
    <i name="pawpsdc">      0.00000000 </i>
    <i name="pawaedc">      0.00000000 </i>
    <i name="eentropy">     -0.02986275 </i>
    <i name="bandstr">  -3876.36492528 </i>
    <i name="atom">      0.00000000 </i>
    <i name="e_fr_energy"> -51450.70587600 </i>
    <i name="e_wo_entrp"> -51450.67601325 </i>
    <i name="e_0_energy"> -51450.69592175 </i>
   </energy>
  </scstep>
  <scstep>
   <time name="diag">    0.56    0.56</time>
   <time name="diis">    0.43    0.43</time>
   <time name="orth">    0.23    0.23</time>
   <time name="total">    1.23    1.23</time>
   <energy>
    <i name="e_fr_energy"> -52760.43385949 </i>
    <i name="e_wo_entrp"> -52760.45792223 </i>
    <i name="e_0_energy"> -52760.44188041 </i>
   </energy>
  </scstep>
  <scstep>
   <time name="diag">    0.56    0.56</time>
   <time name="diis">    0.43    0.43</time>
   <time name="orth">    0.23    0.23</time>
   <time name="total">    1.23    1.23</time>
   <energy>
    <i name="e_fr_energy"> -52974.33537757 </i>
    <i name="e_wo_entrp"> -52974.31550845 </i>
    <i name="e_0_energy"> -52974.32875453 </i>
   </energy>
  </scstep>
  <scstep>
   <time name="diag">    0.56    0.56</time>
   <time name="diis">    0.43    0.43</time>
   <time name="orth">    0.23    0.23</time>
   <time name="total">    1.24    1.23</time>
   <energy>
    <i name="e_fr_energy"> -53114.51699753 </i>
    <i name="e_wo_entrp"> -53114.48299332 </i>
    <i name="e_0_energy"> -53114.50566279 </i>
   </energy>
  </scstep>
  <scstep>
   <time name="diag">    0.56    0.56</time>
   <time name="diis">    0.43    0.43</time>
   <time name="orth">    0.23    0.23</time>
   <time name="total">    1.23    1.24</time>
   <energy>
    <i name="e_fr_energy"> -53178.90296721 </i>
    <i name="e_wo_entrp"> -53178.92723529 </i>
    <i name="e_0_energy"> -53178.91105657 </i>
   </energy>
  </scstep>
  <scstep>
   <time name="diag">    0.56    0.56</time>
   <time name="diis">    0.93    0.94</time>
   <time name="orth">    0.23    0.23</time>
   <time name="total">    1.74    1.73</time>
   <energy>
    <i name="e_fr_energy"> -53226.44533647 </i>
    <i name="e_wo_entrp"> -53226.41422076 </i>
    <i name="e_0_energy"> -53226.43496457 </i>
   </energy>
  </scstep>
  <scstep>
   <time name="diag">    0.56    0.56</time>
   <time name="diis">    0.99    0.99</time>
   <time name="orth">    0.24    0.23</time>
   <time name="total">    1.86    1.85</time>
   <energy>
    <i name="e_fr_energy"> -53233.03344031 </i>
    <i name="e_wo_entrp"> -53232.98072737 </i>
    <i name="e_0_energy"> -53233.01586933 </i>
   </energy>
  </scstep>
  <scstep>
   <time name="diag">    0.57    0.57</time>
   <time name="diis">    0.91    0.91</time>
   <time name="orth">    0.23    0.23</time>
   <time name="total">    1.78    1.80</time>
   <energy>
    <i name="e_fr_energy"> -53232.27944267 </i>
    <i name="e_wo_entrp"> -53232.24037640 </i>
    <i name="e_0_energy"> -53232.26642058 </i>
   </energy>
  </scstep>
  <scstep>
   <time name="diag">    0.56    0.56</time>
   <time name="diis">    0.93    0.92</time>
   <time name="orth">    0.23    0.23</time>
   <time name="total">    1.81    1.80</time>
   <energy>
    <i name="e_fr_energy"> -53232.72830302 </i>
    <i name="e_wo_entrp"> -53232.75684087 </i>
    <i name="e_0_energy"> -53232.73781564 </i>
   </energy>
  </scstep>
  <scstep>
   <time name="diag">    0.57    0.56</time>
   <time name="diis">    0.90    0.90</time>
   <time name="orth">    0.23    0.24</time>
   <time name="total">    1.79    1.79</time>
   <energy>
    <i name="e_fr_energy"> -53232.71484485 </i>
    <i name="e_wo_entrp"> -53232.73174169 </i>
    <i name="e_0_energy"> -53232.72047713 </i>
   </energy>
  </scstep>
  <scstep>
   <time name="diag">    0.56    0.56</time>
   <time name="diis">    0.91    0.91</time>
   <time name="orth">    0.23    0.24</time>
   <time name="total">    1.79    1.79</time>
   <energy>
    <i name="e_fr_energy"> -53232.70895408 </i>
    <i name="e_wo_entrp"> -53232.71218865 </i>
    <i name="e_0_energy"> -53232.71003227 </i>
   </energy>
  </scstep>
  <scstep>
   <time name="diag">    0.57    0.57</time>
   <time name="diis">    0.91    0.91</time>
   <time name="orth">    0.23    0.23</time>
   <time name="total">    1.79    1.80</time>
   <energy>
    <i name="e_fr_energy"> -53232.70751178 </i>
    <i name="e_wo_entrp"> -53232.71437426 </i>
    <i name="e_0_energy"> -53232.70979927 </i>
   </energy>
  </scstep>
  <scstep>
   <time name="diag">    0.56    0.57</time>
   <time name="diis">    0.90    0.89</time>
   <time name="orth">    0.23    0.23</time>
   <time name="total">    1.72    1.71</time>
   <energy>
    <i name="alphaZ">   9011.06985828 </i>
    <i name="ewald"> -50064.50825885 </i>
    <i name="hartreedc">  -8630.92000717 </i>
    <i name="XCdc">   2371.82929784 </i>
    <i name="pawpsdc">      0.00000000 </i>
    <i name="pawaedc">      0.00000000 </i>
    <i name="eentropy">      0.00749678 </i>
    <i name="bandstr">  -5920.18598583 </i>
    <i name="atom">      0.00000000 </i>
    <i name="e_fr_energy"> -53232.70759896 </i>
    <i name="e_wo_entrp"> -53232.71509574 </i>
    <i name="e_0_energy"> -53232.71009789 </i>
   </energy>
  </scstep>
  <v type="logical" name="LVDW"> F  </v>
  <structure>
   <crystal>
    <varray name="basis" >
     <v>      10.79700000       0.00000000       0.00000000 </v>
     <v>       0.00000000      10.79700000       0.00000000 </v>
     <v>       0.00000000       0.00000000      10.79700000 </v>
    </varray>
    <i name="volume">   1258.66253157 </i>
    <varray name="rec_basis" >
     <v>       0.09261832       0.00000000       0.00000000 </v>
     <v>       0.00000000       0.09261832       0.00000000 </v>
     <v>       0.00000000       0.00000000       0.09261832 </v>
    </varray>
   </crystal>
   <varray name="positions" >
    <v>       0.30038700       0.97256200       0.67990100 </v>
    <v>       0.10039900       0.86661800       0.88658600 </v>
    <v>       0.42324900       0.85784400       0.90079000 </v>
    <v>       0.61355400       0.94454300       0.68085300 </v>
    <v>       0.97062700       0.65631500       0.88409500 </v>
    <v>       0.35185700       0.34241900       0.11277200 </v>
    <v>       0.32256100       0.43533000       0.68330900 </v>
    <v>       0.80125700       0.97793800       0.92463100 </v>
    <v>       0.35561300       0.27920800       0.45175400 </v>
    <v>       0.61084300       0.15115600       0.00913500 </v>
    <v>       0.66497800       0.52222700       0.66841500 </v>
    <v>       0.89504800       0.46396300       0.97109200 </v>
    <v>       0.14344200       0.60556200       0.11626200 </v>
    <v>       0.15832600       0.37085300       0.88569300 </v>
    <v>       0.52914500       0.45790500       0.88785100 </v>
    <v>       0.62384600       0.89889200       0.13545600 </v>
    <v>       0.82879500       0.23141000       0.13957100 </v>
    <v>       0.38764900       0.99248300       0.19400400 </v>
    <v>       0.29019600       0.10818400       0.93377000 </v>
    <v>       0.77819100       0.98028900       0.40100800 </v>
    <v>       0.97838300       0.43760100       0.26907000 </v>
    <v>       0.08608600       0.51554300       0.57157900 </v>
    <v>       0.64430500       0.46853800       0.14563000 </v>
    <v>       0.96627500       0.21916200       0.43302800 </v>
    <v>       0.79705900       0.66281100       0.14947100 </v>
    <v>       0.28851000       0.79993800       0.38522900 </v>
    <v>       0.28803000       0.50167000       0.36481300 </v>
    <v>       0.66572800       0.71361500       0.83563300 </v>
    <v>       0.95610600       0.92757300       0.10475300 </v>
    <v>       0.24943400       0.86349100       0.12894200 </v>
    <v>       0.43130600       0.63485200       0.12498600 </v>
    <v>       0.59624400       0.73994800       0.37490800 </v>
    <v>       0.11745300       0.02929100       0.40252400 </v>
    <v>       0.61058700       0.18556100       0.27315200 </v>
    <v>       0.46013900       0.00811500       0.47108400 </v>
    <v>       0.76472100       0.26056500       0.83528500 </v>
    <v>       0.02799800       0.13452100       0.91821500 </v>
    <v>       0.12293200       0.17109200       0.65611800 </v>
    <v>       0.69721500       0.23532000       0.55431300 </v>
    <v>       0.79251400       0.49926300       0.39981900 </v>
    <v>       0.90812800       0.39557000       0.64834600 </v>
    <v>       0.14587800       0.24022400       0.20608500 </v>
    <v>       0.54199300       0.48257200       0.40104500 </v>
    <v>       0.45001100       0.68462000       0.60661600 </v>
    <v>       0.80659700       0.73644800       0.59741700 </v>
    <v>       0.99875600       0.74226300       0.33461700 </v>
    <v>       0.26139900       0.64015800       0.82418200 </v>
    <v>       0.90173500       0.97529800       0.65618700 </v>
    <v>       0.07524800       0.78581800       0.58743700 </v>
    <v>       0.46926700       0.19285500       0.69256700 </v>
   </varray>
  </structure>
  <varray name="forces" >
   <v>      -0.38909810      -0.40474784       0.19566291 </v>
   <v>       0.78008102       0.28705231      -0.65711627 </v>
   <v>       0.58299706      -0.36394711       0.09157600 </v>
   <v>       0.58551683      -0.07660526       0.08079427 </v>
   <v>       0.82984078       1.90441925      -1.51555146 </v>
   <v>       0.83973084       0.60807871      -0.31291268 </v>
   <v>       0.01276437      -0.51895054      -0.28488066 </v>
   <v>      -0.85997000       0.16853759      -1.27794378 </v>
   <v>      -0.06569290      -0.75639384       0.11399724 </v>
   <v>      -0.60749684      -0.33420108      -0.09043679 </v>
   <v>      -0.06300525      -0.66210217      -0.40550568 </v>
   <v>      -1.54532841      -3.29064953       1.44557332 </v>
   <v>       0.15406567       0.16247058       0.11151021 </v>
   <v>      -0.47557742       0.24632665       0.07923088 </v>
   <v>      -0.51426000      -0.61352155       0.10287392 </v>
   <v>       0.46271937      -0.67095620       0.07743688 </v>
   <v>       0.60225675       0.39642805       0.09723424 </v>
   <v>       7.72304898       7.78529616       3.85330183 </v>
   <v>       0.30626064       0.41175118       0.09693408 </v>
   <v>       0.34988748       0.06530876      -0.24184726 </v>
   <v>       1.45755511      -0.21138517      -1.32433168 </v>
   <v>       2.15636507       1.44401207      -0.75025463 </v>
   <v>      -0.57736101      -0.91491468      -0.19529348 </v>
   <v>      -1.13845425       0.38715053       0.10338075 </v>
   <v>       0.73859873       1.05942046       0.13798335 </v>
   <v>      -0.53403811      -0.32501670       0.42968182 </v>
   <v>      -1.04683111       1.39199815      -0.53549099 </v>
   <v>      -0.22343978       0.65583325       0.87533647 </v>
   <v>       0.41593829      -0.51730426       1.95406918 </v>
   <v>      -8.35665839      -7.36459062      -4.45396959 </v>
   <v>      -0.16687488       0.17710832      -0.12496046 </v>
   <v>       0.23153948       0.69256898      -0.40928423 </v>
   <v>       0.82269985      -1.24873137       0.09438445 </v>
   <v>      -0.33567289      -0.30460991       0.96618776 </v>
   <v>       0.16005079       0.40567098      -0.30500733 </v>
   <v>       0.11679255       0.58693343      -0.07953078 </v>
   <v>      -0.68108160       0.11351805       0.22214529 </v>
   <v>      -0.04611140       0.63358192      -0.00158240 </v>
   <v>       0.16102577       0.18520075      -0.41138073 </v>
   <v>      -0.61191272       0.52169865       0.96665172 </v>
   <v>      -1.47681742      -1.96760556       1.20238771 </v>
   <v>      -0.30673901      -0.51280982       0.34805421 </v>
   <v>      -0.13661081      -0.72217729       0.35715243 </v>
   <v>      -0.18287207       0.04359583       0.05475375 </v>
   <v>       0.16991254       0.03858729      -0.52838614 </v>
   <v>      -0.13067480       0.27661879      -0.25949812 </v>
   <v>      -0.25837940       0.39287632      -0.21406701 </v>
   <v>       0.02187213       1.01261405       0.14990854 </v>
   <v>       0.98891930      -0.30219216       0.09518988 </v>
   <v>       0.06051920       0.02875561       0.07583907 </v>
  </varray>
  <varray name="stress" >
   <v>       1.25130505      25.35659483       1.75893825 </v>
   <v>      25.35664030      14.67476990      -0.74499170 </v>
   <v>       1.75914902      -0.74539421     -19.60278144 </v>
  </varray>
  <energy>
   <i name="e_fr_energy"> -53232.70759896 </i>
   <i name="e_wo_entrp"> -53232.71009789 </i>
   <i name="e_0_energy">      0.00749678 </i>
  </energy>
  <time name="totalsc">   22.17   22.21</time>
  <eigenvalues>
   <array>
    <dimension dim="1">band</dimension>
    <dimension dim="2">kpoint</dimension>
    <dimension dim="3">spin</dimension>
    <field>eigene</field>
    <field>occ</field>
    <set>
     <set comment="spin 1">
      <set comment="kpoint 1">
       <r>  -13.9773    1.0000 </r>
       <r>  -12.8920    1.0000 </r>
       <r>  -12.8207    1.0000 </r>
       <r>  -12.7252    1.0000 </r>
       <r>  -12.6691    1.0000 </r>
       <r>  -12.4806    1.0000 </r>
       <r>  -12.3072    1.0000 </r>
       <r>  -12.1033    1.0000 </r>
       <r>  -11.9509    1.0000 </r>
       <r>  -11.9186    1.0000 </r>
       <r>  -11.8526    1.0000 </r>
       <r>  -11.8291    1.0000 </r>
       <r>  -11.8232    1.0000 </r>
       <r>  -11.8128    1.0000 </r>
       <r>  -11.7747    1.0000 </r>
       <r>  -11.7648    1.0000 </r>
       <r>  -11.7318    1.0000 </r>
       <r>  -11.7232    1.0000 </r>
       <r>  -11.6931    1.0000 </r>
       <r>  -11.6642    1.0000 </r>
       <r>  -11.6472    1.0000 </r>
       <r>  -11.6422    1.0000 </r>
       <r>  -11.6249    1.0000 </r>
       <r>  -11.6030    1.0000 </r>
       <r>  -11.5599    1.0000 </r>
       <r>  -11.5493    1.0000 </r>
       <r>  -11.5349    1.0000 </r>
       <r>  -11.5223    1.0000 </r>
       <r>  -11.5176    1.0000 </r>
       <r>  -11.4899    1.0000 </r>
       <r>  -11.4887    1.0000 </r>
       <r>  -11.4442    1.0000 </r>
       <r>  -11.4358    1.0000 </r>
       <r>  -11.3987    1.0000 </r>
       <r>  -11.3892    1.0000 </r>
       <r>  -11.3839    1.0000 </r>
       <r>  -11.3777    1.0000 </r>
       <r>  -11.3498    1.0000 </r>
       <r>  -11.3415    1.0000 </r>
       <r>  -11.3294    1.0000 </r>
       <r>  -11.3120    1.0000 </r>
       <r>  -11.3043    1.0000 </r>
       <r>  -11.2990    1.0000 </r>
       <r>  -11.2762    1.0000 </r>
       <r>  -11.2711    1.0000 </r>
       <r>  -11.2537    1.0000 </r>
       <r>  -11.2467    1.0000 </r>
       <r>  -11.2283    1.0000 </r>
       <r>  -11.2244    1.0000 </r>
       <r>  -11.2061    1.0000 </r>
       <r>  -11.1912    1.0000 </r>
       <r>  -11.1870    1.0000 </r>
       <r>  -11.1744    1.0000 </r>
       <r>  -11.1564    1.0000 </r>
       <r>  -11.1523    1.0000 </r>
       <r>  -11.1415    1.0000 </r>
       <r>  -11.1232    1.0000 </r>
       <r>  -11.1151    1.0000 </r>
       <r>  -11.1029    1.0000 </r>
       <r>  -11.0945    1.0000 </r>
       <r>  -11.0847    1.0000 </r>
       <r>  -11.0703    1.0000 </r>
       <r>  -11.0648    1.0000 </r>
       <r>  -11.0538    1.0000 </r>
       <r>  -11.0421    1.0000 </r>
       <r>  -11.0285    1.0000 </r>
       <r>  -11.0215    1.0000 </r>
       <r>  -11.0054    1.0000 </r>
       <r>  -10.9971    1.0000 </r>
       <r>  -10.9738    1.0000 </r>
       <r>  -10.9597    1.0000 </r>
       <r>  -10.9567    1.0000 </r>
       <r>  -10.9441    1.0000 </r>
       <r>  -10.9368    1.0000 </r>
       <r>  -10.9224    1.0000 </r>
       <r>  -10.9068    1.0000 </r>
       <r>  -10.9049    1.0000 </r>
       <r>  -10.8927    1.0000 </r>
       <r>  -10.8789    1.0000 </r>
       <r>  -10.8648    1.0000 </r>
       <r>  -10.8571    1.0000 </r>
       <r>  -10.8472    1.0000 </r>
       <r>  -10.8303    1.0000 </r>
       <r>  -10.8229    1.0000 </r>
       <r>  -10.8180    1.0000 </r>
       <r>  -10.8011    1.0000 </r>
       <r>  -10.7972    1.0000 </r>
       <r>  -10.7864    1.0000 </r>
       <r>  -10.7775    1.0000 </r>
       <r>  -10.7715    1.0000 </r>
       <r>  -10.7605    1.0000 </r>
       <r>  -10.7475    1.0000 </r>
       <r>  -10.7333    1.0000 </r>
       <r>  -10.7220    1.0000 </r>
       <r>  -10.7089    1.0000 </r>
       <r>  -10.7027    1.0000 </r>
       <r>  -10.6928    1.0000 </r>
       <r>  -10.6818    1.0000 </r>
       <r>  -10.6762    1.0000 </r>
       <r>  -10.6617    1.0000 </r>
       <r>  -10.6427    1.0000 </r>
       <r>  -10.6335    1.0000 </r>
       <r>  -10.6310    1.0000 </r>
       <r>  -10.6127    1.0000 </r>
       <r>  -10.6040    1.0000 </r>
       <r>  -10.5964    1.0000 </r>
       <r>  -10.5901    1.0000 </r>
       <r>  -10.5758    1.0000 </r>
       <r>  -10.5642    1.0000 </r>
       <r>  -10.5540    1.0000 </r>
       <r>  -10.5439    1.0000 </r>
       <r>  -10.5392    1.0000 </r>
       <r>  -10.5320    1.0000 </r>
       <r>  -10.5205    1.0000 </r>
       <r>  -10.5137    1.0000 </r>
       <r>  -10.4987    1.0000 </r>
       <r>  -10.4864    1.0000 </r>
       <r>  -10.4833    1.0000 </r>
       <r>  -10.4761    1.0000 </r>
       <r>  -10.4659    1.0000 </r>
       <r>  -10.4575    1.0000 </r>
       <r>  -10.4496    1.0000 </r>
       <r>  -10.4307    1.0000 </r>
       <r>  -10.4260    1.0000 </r>
       <r>  -10.4180    1.0000 </r>
       <r>  -10.4075    1.0000 </r>
       <r>  -10.3961    1.0000 </r>
       <r>  -10.3819    1.0000 </r>
       <r>  -10.3753    1.0000 </r>
       <r>  -10.3684    1.0000 </r>
       <r>  -10.3623    1.0000 </r>
       <r>  -10.3521    1.0000 </r>
       <r>  -10.3425    1.0000 </r>
       <r>  -10.3390    1.0000 </r>
       <r>  -10.3276    1.0000 </r>
       <r>  -10.3084    1.0000 </r>
       <r>  -10.3028    1.0000 </r>
       <r>  -10.2996    1.0000 </r>
       <r>  -10.2952    1.0000 </r>
       <r>  -10.2731    1.0000 </r>
       <r>  -10.2678    1.0000 </r>
       <r>  -10.2588    1.0000 </r>
       <r>  -10.2494    1.0000 </r>
       <r>  -10.2353    1.0000 </r>
       <r>  -10.2227    1.0000 </r>
       <r>  -10.2207    1.0000 </r>
       <r>  -10.2128    1.0000 </r>
       <r>  -10.2057    1.0000 </r>
       <r>  -10.1981    1.0000 </r>
       <r>  -10.1843    1.0000 </r>
       <r>  -10.1773    1.0000 </r>
       <r>  -10.1696    1.0000 </r>
       <r>  -10.1507    1.0000 </r>
       <r>  -10.1431    1.0000 </r>
       <r>  -10.1390    1.0000 </r>
       <r>  -10.1296    1.0000 </r>
       <r>  -10.1213    1.0000 </r>
       <r>  -10.1110    1.0000 </r>
       <r>  -10.1044    1.0000 </r>
       <r>  -10.0938    1.0000 </r>
       <r>  -10.0899    1.0000 </r>
       <r>  -10.0739    1.0000 </r>
       <r>  -10.0570    1.0000 </r>
       <r>  -10.0513    1.0000 </r>
       <r>  -10.0422    1.0000 </r>
       <r>  -10.0371    1.0000 </r>
       <r>  -10.0214    1.0000 </r>
       <r>  -10.0179    1.0000 </r>
       <r>  -10.0121    1.0000 </r>
       <r>  -10.0010    1.0000 </r>
       <r>   -9.9881    1.0000 </r>
       <r>   -9.9850    1.0000 </r>
       <r>   -9.9828    1.0000 </r>
       <r>   -9.9799    1.0000 </r>
       <r>   -9.9696    1.0000 </r>
       <r>   -9.9552    1.0000 </r>
       <r>   -9.9478    1.0000 </r>
       <r>   -9.9433    1.0000 </r>
       <r>   -9.9371    1.0000 </r>
       <r>   -9.9256    1.0000 </r>
       <r>   -9.9213    1.0000 </r>
       <r>   -9.9129    1.0000 </r>
       <r>   -9.9058    1.0000 </r>
       <r>   -9.8929    1.0000 </r>
       <r>   -9.8791    1.0000 </r>
       <r>   -9.8748    1.0000 </r>
       <r>   -9.8718    1.0000 </r>
       <r>   -9.8665    1.0000 </r>
       <r>   -9.8551    1.0000 </r>
       <r>   -9.8415    1.0000 </r>
       <r>   -9.8365    1.0000 </r>
       <r>   -9.8240    1.0000 </r>
       <r>   -9.8203    1.0000 </r>
       <r>   -9.8146    1.0000 </r>
       <r>   -9.8038    1.0000 </r>
       <r>   -9.7974    1.0000 </r>
       <r>   -9.7899    1.0000 </r>
       <r>   -9.7785    1.0000 </r>
       <r>   -9.7757    1.0000 </r>
       <r>   -9.7669    1.0000 </r>
       <r>   -9.7604    1.0000 </r>
       <r>   -9.7533    1.0000 </r>
       <r>   -9.7439    1.0000 </r>
       <r>   -9.7406    1.0000 </r>
       <r>   -9.7321    1.0000 </r>
       <r>   -9.7217    1.0000 </r>
       <r>   -9.7172    1.0000 </r>
       <r>   -9.7076    1.0000 </r>
       <r>   -9.7062    1.0000 </r>
       <r>   -9.6945    1.0000 </r>
       <r>   -9.6794    1.0000 </r>
       <r>   -9.6751    1.0000 </r>
       <r>   -9.6728    1.0000 </r>
       <r>   -9.6597    1.0000 </r>
       <r>   -9.6525    1.0000 </r>
       <r>   -9.6467    1.0000 </r>
       <r>   -9.6378    1.0000 </r>
       <r>   -9.6284    1.0000 </r>
       <r>   -9.6195    1.0000 </r>
       <r>   -9.6093    1.0000 </r>
       <r>   -9.5977    1.0000 </r>
       <r>   -9.5904    1.0000 </r>
       <r>   -9.5860    1.0000 </r>
       <r>   -9.5820    1.0000 </r>
       <r>   -9.5667    1.0000 </r>
       <r>   -9.5524    1.0000 </r>
       <r>   -9.5461    1.0000 </r>
       <r>   -9.5384    1.0000 </r>
       <r>   -9.5374    1.0000 </r>
       <r>   -9.5314    1.0000 </r>
       <r>   -9.5176    1.0000 </r>
       <r>   -9.5073    1.0000 </r>
       <r>   -9.4973    1.0000 </r>
       <r>   -9.4878    1.0000 </r>
       <r>   -9.4840    1.0000 </r>
       <r>   -9.4692    1.0000 </r>
       <r>   -9.4601    1.0000 </r>
       <r>   -9.4493    1.0000 </r>
       <r>   -9.4428    1.0000 </r>
       <r>   -9.4317    1.0000 </r>
       <r>   -9.4200    1.0000 </r>
       <r>   -9.4151    1.0000 </r>
       <r>   -9.4043    1.0000 </r>
       <r>   -9.3880    1.0000 </r>
       <r>   -9.3770    1.0000 </r>
       <r>   -9.3635    1.0000 </r>
       <r>   -9.3569    1.0000 </r>
       <r>   -9.3523    1.0000 </r>
       <r>   -9.3292    1.0000 </r>
       <r>   -9.3215    1.0000 </r>
       <r>   -9.2925    1.0000 </r>
       <r>   -9.2831    1.0000 </r>
       <r>   -9.2730    1.0000 </r>
       <r>   -9.2560    1.0000 </r>
       <r>   -9.2388    1.0000 </r>
       <r>   -9.2276    1.0000 </r>
       <r>   -9.1957    1.0000 </r>
       <r>   -8.8192    1.0000 </r>
       <r>   -8.7918    1.0000 </r>
       <r>   -8.7386    1.0000 </r>
       <r>   -8.6213    1.0000 </r>
       <r>   -8.5686    1.0000 </r>
       <r>   -8.5204    1.0000 </r>
       <r>   -8.4362    1.0000 </r>
       <r>   -8.3878    1.0000 </r>
       <r>   -8.3081    1.0000 </r>
       <r>   -8.2508    1.0000 </r>
       <r>   -8.1749    1.0000 </r>
       <r>   -8.1492    1.0000 </r>
       <r>   -7.4930    1.0000 </r>
       <r>   -7.3418    1.0000 </r>
       <r>   -7.2373    1.0000 </r>
       <r>   -7.1581    1.0000 </r>
       <r>   -6.9508    1.0000 </r>
       <r>   -6.8957    1.0000 </r>
       <r>   -6.8056    1.0000 </r>
       <r>   -6.6004    1.0000 </r>
       <r>   -5.9289    1.0000 </r>
       <r>   -5.8688    1.0000 </r>
       <r>   -5.7518    1.0000 </r>
       <r>   -5.6386    1.0000 </r>
       <r>   -5.4730    1.0000 </r>
       <r>   -5.2488    1.0000 </r>
       <r>   -5.1173    1.0000 </r>
       <r>   -5.0206    1.0000 </r>
       <r>   -4.8443    1.0000 </r>
       <r>   -4.8025    1.0000 </r>
       <r>   -4.7154    1.0000 </r>
       <r>   -4.5316    1.0000 </r>
       <r>   -4.4663    1.0000 </r>
       <r>   -4.4442    1.0000 </r>
       <r>   -4.3543    1.0000 </r>
       <r>   -4.3255    1.0000 </r>
       <r>   -4.2754    1.0000 </r>
       <r>   -4.2376    1.0000 </r>
       <r>   -4.0342    1.0000 </r>
       <r>   -3.9746    1.0000 </r>
       <r>   -3.8767    1.0008 </r>
       <r>   -3.8670    1.0012 </r>
       <r>   -3.6889    0.9627 </r>
       <r>   -3.5532    0.0593 </r>
       <r>   -3.4600   -0.0240 </r>
       <r>   -3.2259    0.0000 </r>
       <r>   -3.1293    0.0000 </r>
       <r>   -3.0934    0.0000 </r>
       <r>   -2.9690    0.0000 </r>
       <r>   -2.8941    0.0000 </r>
       <r>   -2.8100    0.0000 </r>
       <r>   -2.7366    0.0000 </r>
       <r>   -2.5675    0.0000 </r>
       <r>   -2.5164    0.0000 </r>
       <r>   -2.4482    0.0000 </r>
       <r>   -2.3925    0.0000 </r>
       <r>   -2.2874    0.0000 </r>
       <r>   -2.0761    0.0000 </r>
       <r>   -1.8432    0.0000 </r>
      </set>
     </set>
    </set>
   </array>
  </eigenvalues>
  <separator name="orbital magnetization" >
   <v name="MAGDIPOLOUT">      0.00000000      0.00000000      0.00000000</v>
  </separator>
  <dos>
   <i name="efermi">     -3.61807126 </i>
   <total>
    <array>
     <dimension dim="1">gridpoints</dimension>
     <dimension dim="2">spin</dimension>
     <field>energy</field>
     <field>total</field>
     <field>integrated</field>
     <set>
      <set comment="spin 1">
       <r>   -15.0000     0.0000     0.0000 </r>
       <r>   -14.9500     0.0000     0.0000 </r>
       <r>   -14.9000     0.0000     0.0000 </r>
       <r>   -14.8500     0.0000     0.0000 </r>
       <r>   -14.8000     0.0000     0.0000 </r>
       <r>   -14.7500     0.0000     0.0000 </r>
       <r>   -14.7000     0.0000     0.0000 </r>
       <r>   -14.6500     0.0000     0.0000 </r>
       <r>   -14.6000     0.0000     0.0000 </r>
       <r>   -14.5500     0.0000     0.0000 </r>
       <r>   -14.5000     0.0000     0.0000 </r>
       <r>   -14.4500     0.0000     0.0000 </r>
       <r>   -14.4000     0.0000     0.0000 </r>
       <r>   -14.3500     0.0000     0.0000 </r>
       <r>   -14.3000    -0.0010     0.0000 </r>
       <r>   -14.2500    -0.0149    -0.0008 </r>
       <r>   -14.2000    -0.1278    -0.0072 </r>
       <r>   -14.1500    -0.5520    -0.0348 </r>
       <r>   -14.1000    -0.7226    -0.0709 </r>
       <r>   -14.0500     2.6620     0.0622 </r>
       <r>   -14.0000    11.2912     0.6267 </r>
       <r>   -13.9500    16.3393     1.4437 </r>
       <r>   -13.9000    10.4397     1.9657 </r>
       <r>   -13.8500     2.0908     2.0702 </r>
       <r>   -13.8000    -0.7854     2.0310 </r>
       <r>   -13.7500    -0.4993     2.0060 </r>
       <r>   -13.7000    -0.1076     2.0006 </r>
       <r>   -13.6500    -0.0118     2.0000 </r>
       <r>   -13.6000    -0.0007     2.0000 </r>
       <r>   -13.5500     0.0000     2.0000 </r>
       <r>   -13.5000     0.0000     2.0000 </r>
       <r>   -13.4500     0.0000     2.0000 </r>
       <r>   -13.4000     0.0000     2.0000 </r>
       <r>   -13.3500     0.0000     2.0000 </r>
       <r>   -13.3000     0.0000     2.0000 </r>
       <r>   -13.2500    -0.0001     2.0000 </r>
       <r>   -13.2000    -0.0023     1.9999 </r>
       <r>   -13.1500    -0.0304     1.9984 </r>
       <r>   -13.1000    -0.2231     1.9872 </r>
       <r>   -13.0500    -0.8149     1.9465 </r>
       <r>   -13.0000    -0.7950     1.9067 </r>
       <r>   -12.9500     3.8903     2.1012 </r>
       <r>   -12.9000    14.9666     2.8496 </r>
       <r>   -12.8500    24.4710     4.0731 </r>
       <r>   -12.8000    25.5611     5.3512 </r>
       <r>   -12.7500    24.8968     6.5960 </r>
       <r>   -12.7000    28.0802     8.0000 </r>
       <r>   -12.6500    25.4663     9.2733 </r>
       <r>   -12.6000    12.9629     9.9215 </r>
       <r>   -12.5500     5.2754    10.1852 </r>
       <r>   -12.5000    10.3443    10.7025 </r>
       <r>   -12.4500    14.7352    11.4392 </r>
       <r>   -12.4000    10.2514    11.9518 </r>
       <r>   -12.3500     9.1651    12.4101 </r>
       <r>   -12.3000    14.4320    13.1316 </r>
       <r>   -12.2500    12.5804    13.7607 </r>
       <r>   -12.2000     5.1274    14.0170 </r>
       <r>   -12.1500     6.1428    14.3242 </r>
       <r>   -12.1000    13.1205    14.9802 </r>
       <r>   -12.0500    12.8671    15.6236 </r>
       <r>   -12.0000    11.0762    16.1774 </r>
       <r>   -11.9500    21.2090    17.2378 </r>
       <r>   -11.9000    39.8768    19.2317 </r>
       <r>   -11.8500    64.0273    22.4330 </r>
       <r>   -11.8000    87.9765    26.8318 </r>
       <r>   -11.7500    96.9097    31.6773 </r>
       <r>   -11.7000    96.0933    36.4820 </r>
       <r>   -11.6500    98.1930    41.3916 </r>
       <r>   -11.6000   101.7114    46.4772 </r>
       <r>   -11.5500   108.4521    51.8998 </r>
       <r>   -11.5000   113.9041    57.5950 </r>
       <r>   -11.4500   109.5357    63.0718 </r>
       <r>   -11.4000   114.5923    68.8014 </r>
       <r>   -11.3500   137.8296    75.6929 </r>
       <r>   -11.3000   158.2241    83.6041 </r>
       <r>   -11.2500   165.7279    91.8905 </r>
       <r>   -11.2000   168.2923   100.3051 </r>
       <r>   -11.1500   173.6650   108.9884 </r>
       <r>   -11.1000   180.7644   118.0266 </r>
       <r>   -11.0500   180.9091   127.0721 </r>
       <r>   -11.0000   172.6512   135.7046 </r>
       <r>   -10.9500   169.6368   144.1864 </r>
       <r>   -10.9000   176.8271   153.0278 </r>
       <r>   -10.8500   187.0815   162.3819 </r>
       <r>   -10.8000   196.0159   172.1827 </r>
       <r>   -10.7500   196.5066   182.0080 </r>
       <r>   -10.7000   188.9132   191.4537 </r>
       <r>   -10.6500   184.9733   200.7023 </r>
       <r>   -10.6000   191.4621   210.2754 </r>
       <r>   -10.5500   204.5330   220.5021 </r>
       <r>   -10.5000   213.6733   231.1857 </r>
       <r>   -10.4500   213.8724   241.8794 </r>
       <r>   -10.4000   212.7721   252.5180 </r>
       <r>   -10.3500   215.7296   263.3044 </r>
       <r>   -10.3000   215.9959   274.1042 </r>
       <r>   -10.2500   213.9718   284.8028 </r>
       <r>   -10.2000   215.6971   295.5877 </r>
       <r>   -10.1500   216.6872   306.4220 </r>
       <r>   -10.1000   214.0864   317.1264 </r>
       <r>   -10.0500   218.6296   328.0578 </r>
       <r>   -10.0000   238.3120   339.9734 </r>
       <r>    -9.9500   255.2263   352.7348 </r>
       <r>    -9.9000   253.3431   365.4019 </r>
       <r>    -9.8500   247.6818   377.7860 </r>
       <r>    -9.8000   254.4326   390.5076 </r>
       <r>    -9.7500   265.4700   403.7811 </r>
       <r>    -9.7000   264.5057   417.0064 </r>
       <r>    -9.6500   251.2768   429.5703 </r>
       <r>    -9.6000   238.8895   441.5147 </r>
       <r>    -9.5500   233.5962   453.1945 </r>
       <r>    -9.5000   227.8752   464.5883 </r>
       <r>    -9.4500   215.2051   475.3485 </r>
       <r>    -9.4000   196.9565   485.1964 </r>
       <r>    -9.3500   174.3981   493.9163 </r>
       <r>    -9.3000   150.9912   501.4658 </r>
       <r>    -9.2500   126.1113   507.7714 </r>
       <r>    -9.2000    87.2563   512.1342 </r>
       <r>    -9.1500    38.4344   514.0559 </r>
       <r>    -9.1000     5.3737   514.3246 </r>
       <r>    -9.0500    -3.7826   514.1355 </r>
       <r>    -9.0000    -2.9166   513.9897 </r>
       <r>    -8.9500    -2.2681   513.8763 </r>
       <r>    -8.9000     0.6184   513.9072 </r>
       <r>    -8.8500    14.0254   514.6085 </r>
       <r>    -8.8000    33.6707   516.2920 </r>
       <r>    -8.7500    39.4176   518.2629 </r>
       <r>    -8.7000    27.3239   519.6291 </r>
       <r>    -8.6500    19.1211   520.5851 </r>
       <r>    -8.6000    26.4923   521.9097 </r>
       <r>    -8.5500    35.2344   523.6714 </r>
       <r>    -8.5000    33.7689   525.3599 </r>
       <r>    -8.4500    29.9956   526.8597 </r>
       <r>    -8.4000    30.5700   528.3882 </r>
       <r>    -8.3500    30.3224   529.9043 </r>
       <r>    -8.3000    29.3032   531.3695 </r>
       <r>    -8.2500    31.0354   532.9212 </r>
       <r>    -8.2000    35.1656   534.6795 </r>
       <r>    -8.1500    36.3502   536.4970 </r>
       <r>    -8.1000    25.0543   537.7497 </r>
       <r>    -8.0500     7.7341   538.1364 </r>
       <r>    -8.0000    -0.9018   538.0913 </r>
       <r>    -7.9500    -1.3626   538.0232 </r>
       <r>    -7.9000    -0.4018   538.0031 </r>
       <r>    -7.8500    -0.0578   538.0002 </r>
       <r>    -7.8000    -0.0070   537.9999 </r>
       <r>    -7.7500    -0.0315   537.9983 </r>
       <r>    -7.7000    -0.2202   537.9873 </r>
       <r>    -7.6500    -0.7275   537.9509 </r>
       <r>    -7.6000    -0.2872   537.9366 </r>
       <r>    -7.5500     4.7895   538.1760 </r>
       <r>    -7.5000    13.1513   538.8336 </r>
       <r>    -7.4500    15.0292   539.5851 </r>
       <r>    -7.4000    11.5340   540.1618 </r>
       <r>    -7.3500    13.4441   540.8340 </r>
       <r>    -7.3000    18.0593   541.7369 </r>
       <r>    -7.2500    21.0402   542.7889 </r>
       <r>    -7.2000    24.2266   544.0003 </r>
       <r>    -7.1500    23.0385   545.1522 </r>
       <r>    -7.1000    13.3854   545.8215 </r>
       <r>    -7.0500     3.2571   545.9843 </r>
       <r>    -7.0000     5.1932   546.2440 </r>
       <r>    -6.9500    18.7503   547.1815 </r>
       <r>    -6.9000    29.2086   548.6419 </r>
       <r>    -6.8500    28.4641   550.0651 </r>
       <r>    -6.8000    22.1484   551.1726 </r>
       <r>    -6.7500    12.8919   551.8172 </r>
       <r>    -6.7000     4.2765   552.0310 </r>
       <r>    -6.6500     5.7184   552.3169 </r>
       <r>    -6.6000    14.0522   553.0195 </r>
       <r>    -6.5500    14.5271   553.7459 </r>
       <r>    -6.5000     6.1050   554.0511 </r>
       <r>    -6.4500     0.0776   554.0550 </r>
       <r>    -6.4000    -0.7837   554.0158 </r>
       <r>    -6.3500    -0.2706   554.0023 </r>
       <r>    -6.3000    -0.0420   554.0002 </r>
       <r>    -6.2500    -0.0046   554.0000 </r>
       <r>    -6.2000    -0.0168   553.9991 </r>
       <r>    -6.1500    -0.1453   553.9918 </r>
       <r>    -6.1000    -0.6634   553.9587 </r>
       <r>    -6.0500    -1.1535   553.9010 </r>
       <r>    -6.0000     2.0118   554.0016 </r>
       <r>    -5.9500    12.9461   554.6489 </r>
       <r>    -5.9000    25.1949   555.9086 </r>
       <r>    -5.8500    26.4105   557.2292 </r>
       <r>    -5.8000    19.7334   558.2158 </r>
       <r>    -5.7500    16.9519   559.0634 </r>
       <r>    -5.7000    17.6347   559.9452 </r>
       <r>    -5.6500    17.9034   560.8403 </r>
       <r>    -5.6000    14.9368   561.5872 </r>
       <r>    -5.5500     9.6314   562.0687 </r>
       <r>    -5.5000    11.1246   562.6250 </r>
       <r>    -5.4500    15.2021   563.3851 </r>
       <r>    -5.4000    10.0729   563.8887 </r>
       <r>    -5.3500     2.5000   564.0137 </r>
       <r>    -5.3000     4.8044   564.2539 </r>
       <r>    -5.2500    13.1845   564.9132 </r>
       <r>    -5.2000    15.8387   565.7051 </r>
       <r>    -5.1500    15.0196   566.4561 </r>
       <r>    -5.1000    18.1867   567.3654 </r>
       <r>    -5.0500    21.2167   568.4263 </r>
       <r>    -5.0000    18.3749   569.3450 </r>
       <r>    -4.9500     9.9265   569.8413 </r>
       <r>    -4.9000     7.3740   570.2100 </r>
       <r>    -4.8500    19.0500   571.1625 </r>
       <r>    -4.8000    31.1959   572.7223 </r>
       <r>    -4.7500    30.4866   574.2467 </r>
       <r>    -4.7000    21.6116   575.3272 </r>
       <r>    -4.6500    10.4051   575.8475 </r>
       <r>    -4.6000     4.1914   576.0571 </r>
       <r>    -4.5500    11.9223   576.6532 </r>
       <r>    -4.5000    28.5021   578.0783 </r>
       <r>    -4.4500    38.5930   580.0079 </r>
       <r>    -4.4000    37.4290   581.8794 </r>
       <r>    -4.3500    38.1685   583.7878 </r>
       <r>    -4.3000    45.1016   586.0429 </r>
       <r>    -4.2500    43.9184   588.2388 </r>
       <r>    -4.2000    27.6767   589.6226 </r>
       <r>    -4.1500     8.1109   590.0282 </r>
       <r>    -4.1000     2.1371   590.1350 </r>
       <r>    -4.0500    12.3349   590.7518 </r>
       <r>    -4.0000    24.8561   591.9946 </r>
       <r>    -3.9500    29.4297   593.4661 </r>
       <r>    -3.9000    32.6288   595.0975 </r>
       <r>    -3.8500    33.4302   596.7690 </r>
       <r>    -3.8000    21.1988   597.8290 </r>
       <r>    -3.7500     9.0128   598.2796 </r>
       <r>    -3.7000    10.8803   598.8236 </r>
       <r>    -3.6500    14.6605   599.5566 </r>
       <r>    -3.6000    13.9225   600.2528 </r>
       <r>    -3.5500    16.8561   601.0956 </r>
       <r>    -3.5000    21.6023   602.1757 </r>
       <r>    -3.4500    20.9273   603.2221 </r>
       <r>    -3.4000    12.7297   603.8585 </r>
       <r>    -3.3500     2.8179   603.9994 </r>
       <r>    -3.3000     1.0487   604.0519 </r>
       <r>    -3.2500     8.8734   604.4955 </r>
       <r>    -3.2000    18.7343   605.4323 </r>
       <r>    -3.1500    26.8981   606.7772 </r>
       <r>    -3.1000    31.4591   608.3501 </r>
       <r>    -3.0500    25.6748   609.6339 </r>
       <r>    -3.0000    17.9028   610.5290 </r>
       <r>    -2.9500    20.0477   611.5314 </r>
       <r>    -2.9000    24.8210   612.7724 </r>
       <r>    -2.8500    25.6928   614.0571 </r>
       <r>    -2.8000    26.2256   615.3684 </r>
       <r>    -2.7500    25.6985   616.6533 </r>
       <r>    -2.7000    18.2412   617.5653 </r>
       <r>    -2.6500     8.3511   617.9829 </r>
       <r>    -2.6000    10.2482   618.4953 </r>
       <r>    -2.5500    23.6820   619.6794 </r>
       <r>    -2.5000    33.3553   621.3472 </r>
       <r>    -2.4500    34.5008   623.0722 </r>
       <r>    -2.4000    31.2444   624.6344 </r>
       <r>    -2.3500    24.9955   625.8842 </r>
       <r>    -2.3000    19.9190   626.8802 </r>
       <r>    -2.2500    15.0558   627.6329 </r>
       <r>    -2.2000     6.6476   627.9653 </r>
       <r>    -2.1500     3.1571   628.1232 </r>
       <r>    -2.1000    10.1405   628.6302 </r>
       <r>    -2.0500    15.7335   629.4169 </r>
       <r>    -2.0000     9.8649   629.9101 </r>
       <r>    -1.9500     1.9748   630.0089 </r>
       <r>    -1.9000     4.2496   630.2213 </r>
       <r>    -1.8500    13.3917   630.8909 </r>
       <r>    -1.8000    15.4064   631.6612 </r>
       <r>    -1.7500     7.4360   632.0330 </r>
       <r>    -1.7000     0.5614   632.0611 </r>
       <r>    -1.6500    -0.8261   632.0198 </r>
       <r>    -1.6000    -0.3338   632.0031 </r>
       <r>    -1.5500    -0.0571   632.0003 </r>
       <r>    -1.5000    -0.0052   632.0000 </r>
       <r>    -1.4500    -0.0003   632.0000 </r>
       <r>    -1.4000     0.0000   632.0000 </r>
       <r>    -1.3500     0.0000   632.0000 </r>
       <r>    -1.3000     0.0000   632.0000 </r>
       <r>    -1.2500     0.0000   632.0000 </r>
       <r>    -1.2000     0.0000   632.0000 </r>
       <r>    -1.1500     0.0000   632.0000 </r>
       <r>    -1.1000     0.0000   632.0000 </r>
       <r>    -1.0500     0.0000   632.0000 </r>
       <r>    -1.0000     0.0000   632.0000 </r>
       <r>    -0.9500     0.0000   632.0000 </r>
       <r>    -0.9000     0.0000   632.0000 </r>
       <r>    -0.8500     0.0000   632.0000 </r>
       <r>    -0.8000     0.0000   632.0000 </r>
       <r>    -0.7500     0.0000   632.0000 </r>
       <r>    -0.7000     0.0000   632.0000 </r>
       <r>    -0.6500     0.0000   632.0000 </r>
       <r>    -0.6000     0.0000   632.0000 </r>
       <r>    -0.5500     0.0000   632.0000 </r>
       <r>    -0.5000     0.0000   632.0000 </r>
       <r>    -0.4500     0.0000   632.0000 </r>
       <r>    -0.4000     0.0000   632.0000 </r>
       <r>    -0.3500     0.0000   632.0000 </r>
       <r>    -0.3000     0.0000   632.0000 </r>
       <r>    -0.2500     0.0000   632.0000 </r>
       <r>    -0.2000     0.0000   632.0000 </r>
       <r>    -0.1500     0.0000   632.0000 </r>
       <r>    -0.1000     0.0000   632.0000 </r>
       <r>    -0.0500     0.0000   632.0000 </r>
       <r>     0.0000     0.0000   632.0000 </r>
      </set>
     </set>
    </array>
   </total>
  </dos>
 </calculation>
 <structure name="finalpos" >
  <crystal>
   <varray name="basis" >
    <v>      10.79700000       0.00000000       0.00000000 </v>
    <v>       0.00000000      10.79700000       0.00000000 </v>
    <v>       0.00000000       0.00000000      10.79700000 </v>
   </varray>
   <i name="volume">   1258.66253157 </i>
   <varray name="rec_basis" >
    <v>       0.09261832       0.00000000       0.00000000 </v>
    <v>       0.00000000       0.09261832       0.00000000 </v>
    <v>       0.00000000       0.00000000       0.09261832 </v>
   </varray>
  </crystal>
  <varray name="positions" >
   <v>       0.30038700       0.97256200       0.67990100 </v>
   <v>       0.10039900       0.86661800       0.88658600 </v>
   <v>       0.42324900       0.85784400       0.90079000 </v>
   <v>       0.61355400       0.94454300       0.68085300 </v>
   <v>       0.97062700       0.65631500       0.88409500 </v>
   <v>       0.35185700       0.34241900       0.11277200 </v>
   <v>       0.32256100       0.43533000       0.68330900 </v>
   <v>       0.80125700       0.97793800       0.92463100 </v>
   <v>       0.35561300       0.27920800       0.45175400 </v>
   <v>       0.61084300       0.15115600       0.00913500 </v>
   <v>       0.66497800       0.52222700       0.66841500 </v>
   <v>       0.89504800       0.46396300       0.97109200 </v>
   <v>       0.14344200       0.60556200       0.11626200 </v>
   <v>       0.15832600       0.37085300       0.88569300 </v>
   <v>       0.52914500       0.45790500       0.88785100 </v>
   <v>       0.62384600       0.89889200       0.13545600 </v>
   <v>       0.82879500       0.23141000       0.13957100 </v>
   <v>       0.38764900       0.99248300       0.19400400 </v>
   <v>       0.29019600       0.10818400       0.93377000 </v>
   <v>       0.77819100       0.98028900       0.40100800 </v>
   <v>       0.97838300       0.43760100       0.26907000 </v>
   <v>       0.08608600       0.51554300       0.57157900 </v>
   <v>       0.64430500       0.46853800       0.14563000 </v>
   <v>       0.96627500       0.21916200       0.43302800 </v>
   <v>       0.79705900       0.66281100       0.14947100 </v>
   <v>       0.28851000       0.79993800       0.38522900 </v>
   <v>       0.28803000       0.50167000       0.36481300 </v>
   <v>       0.66572800       0.71361500       0.83563300 </v>
   <v>       0.95610600       0.92757300       0.10475300 </v>
   <v>       0.24943400       0.86349100       0.12894200 </v>
   <v>       0.43130600       0.63485200       0.12498600 </v>
   <v>       0.59624400       0.73994800       0.37490800 </v>
   <v>       0.11745300       0.02929100       0.40252400 </v>
   <v>       0.61058700       0.18556100       0.27315200 </v>
   <v>       0.46013900       0.00811500       0.47108400 </v>
   <v>       0.76472100       0.26056500       0.83528500 </v>
   <v>       0.02799800       0.13452100       0.91821500 </v>
   <v>       0.12293200       0.17109200       0.65611800 </v>
   <v>       0.69721500       0.23532000       0.55431300 </v>
   <v>       0.79251400       0.49926300       0.39981900 </v>
   <v>       0.90812800       0.39557000       0.64834600 </v>
   <v>       0.14587800       0.24022400       0.20608500 </v>
   <v>       0.54199300       0.48257200       0.40104500 </v>
   <v>       0.45001100       0.68462000       0.60661600 </v>
   <v>       0.80659700       0.73644800       0.59741700 </v>
   <v>       0.99875600       0.74226300       0.33461700 </v>
   <v>       0.26139900       0.64015800       0.82418200 </v>
   <v>       0.90173500       0.97529800       0.65618700 </v>
   <v>       0.07524800       0.78581800       0.58743700 </v>
   <v>       0.46926700       0.19285500       0.69256700 </v>
  </varray>
 </structure>
</modeling>
