Hg                                      
 1
    10.797000    0.000000    0.000000
     0.000000   10.797000    0.000000
     0.000000    0.000000   10.797000
   Hg
  50
Direct configuration=     1
   0.30038700  0.97256200  0.67990100
   0.10039900  0.86661800  0.88658600
   0.42324900  0.85784400  0.90079000
   0.61355400  0.94454300  0.68085300
   0.97062700  0.65631500  0.88409500
   0.35185700  0.34241900  0.11277200
   0.32256100  0.43533000  0.68330900
   0.80125700  0.97793800  0.92463100
   0.35561300  0.27920800  0.45175400
   0.61084300  0.15115600  0.00913500
   0.66497800  0.52222700  0.66841500
   0.89504800  0.46396300  0.97109200
   0.14344200  0.60556200  0.11626200
   0.15832600  0.37085300  0.88569300
   0.52914500  0.45790500  0.88785100
   0.62384600  0.89889200  0.13545600
   0.82879500  0.23141000  0.13957100
   0.38764900  0.99248300  0.19400400
   0.29019600  0.10818400  0.93377000
   0.77819100  0.98028900  0.40100800
   0.97838300  0.43760100  0.26907000
   0.08608600  0.51554300  0.57157900
   0.64430500  0.46853800  0.14563000
   0.96627500  0.21916200  0.43302800
   0.79705900  0.66281100  0.14947100
   0.28851000  0.79993800  0.38522900
   0.28803000  0.50167000  0.36481300
   0.66572800  0.71361500  0.83563300
   0.95610600  0.92757300  0.10475300
   0.24943400  0.86349100  0.12894200
   0.43130600  0.63485200  0.12498600
   0.59624400  0.73994800  0.37490800
   0.11745300  0.02929100  0.40252400
   0.61058700  0.18556100  0.27315200
   0.46013900  0.00811500  0.47108400
   0.76472100  0.26056500  0.83528500
   0.02799800  0.13452100  0.91821500
   0.12293200  0.17109200  0.65611800
   0.69721500  0.23532000  0.55431300
   0.79251400  0.49926300  0.39981900
   0.90812800  0.39557000  0.64834600
   0.14587800  0.24022400  0.20608500
   0.54199300  0.48257200  0.40104500
   0.45001100  0.68462000  0.60661600
   0.80659700  0.73644800  0.59741700
   0.99875600  0.74226300  0.33461700
   0.26139900  0.64015800  0.82418200
   0.90173500  0.97529800  0.65618700
   0.07524800  0.78581800  0.58743700
   0.46926700  0.19285500  0.69256700
